* EQUILIBRATED WATER
*  DATE:     2/18/25     11: 2:16      CREATED BY USER: charmm-gui
*
     31287  EXT
         1         1  TIP3      OH2           -24.9438887078      -26.5749763765      -23.2161341586  W2        1               0.0000000000
         2         1  TIP3      H1            -24.8547787078      -25.6311563765      -23.3484241586  W2        1               0.0000000000
         3         1  TIP3      H2            -25.5821287078      -26.8503363765      -23.8741941586  W2        1               0.0000000000
         4         2  TIP3      OH2           -26.0107587078      -27.3199063765      -19.7973141586  W2        2               0.0000000000
         5         2  TIP3      H1            -26.0490087078      -27.9662763765      -19.0923541586  W2        2               0.0000000000
         6         2  TIP3      H2            -26.3331087078      -27.7864663765      -20.5684441586  W2        2               0.0000000000
         7         3  TIP3      OH2           -33.6422587078      -27.7056963765      -18.2043241586  W2        3               0.0000000000
         8         3  TIP3      H1            -33.6010487078      -28.3313663765      -17.4810841586  W2        3               0.0000000000
         9         3  TIP3      H2            -32.9394887078      -27.0818363765      -18.0222841586  W2        3               0.0000000000
        10         4  TIP3      OH2           -22.3047387078      -24.3808663765      -21.4958041586  W2        4               0.0000000000
        11         4  TIP3      H1            -22.7454687078      -25.1012663765      -21.0452441586  W2        4               0.0000000000
        12         4  TIP3      H2            -22.3177687078      -23.6601463765      -20.8660341586  W2        4               0.0000000000
        13         5  TIP3      OH2           -32.7189487078      -23.2558063765      -19.6694141586  W2        5               0.0000000000
        14         5  TIP3      H1            -33.0884287078      -24.0577563765      -20.0389841586  W2        5               0.0000000000
        15         5  TIP3      H2            -31.7778387078      -23.4243163765      -19.6230741586  W2        5               0.0000000000
        16         6  TIP3      OH2           -36.1088987078      -29.5955463765      -24.2765341586  W2        6               0.0000000000
        17         6  TIP3      H1            -36.5565587078      -28.7496763765      -24.2948841586  W2        6               0.0000000000
        18         6  TIP3      H2            -36.6697787078      -30.1751263765      -24.7920241586  W2        6               0.0000000000
        19         7  TIP3      OH2           -35.3982887078      -27.4335863765      -22.1507341586  W2        7               0.0000000000
        20         7  TIP3      H1            -35.1849387078      -28.2034263765      -21.6234341586  W2        7               0.0000000000
        21         7  TIP3      H2            -34.6605287078      -27.3439163765      -22.7539741586  W2        7               0.0000000000
        22         8  TIP3      OH2           -25.1931887078      -19.2766963765      -21.2837641586  W2        8               0.0000000000
        23         8  TIP3      H1            -24.5735487078      -19.9532263765      -21.5568441586  W2        8               0.0000000000
        24         8  TIP3      H2            -25.4014487078      -19.4946163765      -20.3752741586  W2        8               0.0000000000
        25         9  TIP3      OH2           -27.6213187078      -24.8877663765      -19.3912141586  W2        9               0.0000000000
        26         9  TIP3      H1            -27.3175287078      -25.5736263765      -19.9858041586  W2        9               0.0000000000
        27         9  TIP3      H2            -26.8999187078      -24.7688963765      -18.7734141586  W2        9               0.0000000000
        28        10  TIP3      OH2           -18.9583387078      -33.2862363765      -18.5305941586  W2        10              0.0000000000
        29        10  TIP3      H1            -18.9091187078      -32.6761163765      -17.7946841586  W2        10              0.0000000000
        30        10  TIP3      H2            -18.5328287078      -32.8251463765      -19.2534841586  W2        10              0.0000000000
        31        11  TIP3      OH2           -24.4806187078      -30.4935263765      -19.0637341586  W2        11              0.0000000000
        32        11  TIP3      H1            -24.3380287078      -31.4398263765      -19.0435741586  W2        11              0.0000000000
        33        11  TIP3      H2            -24.5867187078      -30.2865463765      -19.9922441586  W2        11              0.0000000000
        34        12  TIP3      OH2           -31.3257887078      -32.3918863765      -21.7912541586  W2        12              0.0000000000
        35        12  TIP3      H1            -31.2826787078      -31.5320363765      -22.2096241586  W2        12              0.0000000000
        36        12  TIP3      H2            -31.7833787078      -32.9444163765      -22.4249341586  W2        12              0.0000000000
        37        13  TIP3      OH2           -23.6035187078      -32.2613263765      -23.3904241586  W2        13              0.0000000000
        38        13  TIP3      H1            -22.9570887078      -32.5900063765      -22.7656641586  W2        13              0.0000000000
        39        13  TIP3      H2            -23.0935787078      -31.7434263765      -24.0132841586  W2        13              0.0000000000
        40        14  TIP3      OH2           -34.7056387078      -29.9953063765      -21.0291141586  W2        14              0.0000000000
        41        14  TIP3      H1            -34.0519787078      -30.5451363765      -20.5971041586  W2        14              0.0000000000
        42        14  TIP3      H2            -34.6817087078      -30.2694063765      -21.9459141586  W2        14              0.0000000000
        43        15  TIP3      OH2           -29.5491887078      -28.4451763765      -21.8139641586  W2        15              0.0000000000
        44        15  TIP3      H1            -28.9330887078      -28.9716363765      -21.3045641586  W2        15              0.0000000000
        45        15  TIP3      H2            -30.1353087078      -29.0853063765      -22.2176041586  W2        15              0.0000000000
        46        16  TIP3      OH2           -18.5668787078      -31.8083163765      -16.2946141586  W2        16              0.0000000000
        47        16  TIP3      H1            -19.2554187078      -31.1502463765      -16.3899541586  W2        16              0.0000000000
        48        16  TIP3      H2            -18.5514187078      -32.0055263765      -15.3580741586  W2        16              0.0000000000
        49        17  TIP3      OH2           -32.5155987078      -33.4740463765      -17.7171741586  W2        17              0.0000000000
        50        17  TIP3      H1            -32.7344287078      -32.9439863765      -18.4835741586  W2        17              0.0000000000
        51        17  TIP3      H2            -33.1835087078      -33.2474963765      -17.0700341586  W2        17              0.0000000000
        52        18  TIP3      OH2           -25.1466187078      -23.9739363765      -24.1732641586  W2        18              0.0000000000
        53        18  TIP3      H1            -25.4421087078      -24.2967063765      -25.0245741586  W2        18              0.0000000000
        54        18  TIP3      H2            -25.4708387078      -23.0742663765      -24.1320041586  W2        18              0.0000000000
        55        19  TIP3      OH2           -29.9464587078      -25.7984763765      -17.4298041586  W2        19              0.0000000000
        56        19  TIP3      H1            -30.6865487078      -25.2003263765      -17.3262841586  W2        19              0.0000000000
        57        19  TIP3      H2            -29.2325087078      -25.2445163765      -17.7454441586  W2        19              0.0000000000
        58        20  TIP3      OH2           -21.8396787078      -32.9703963765      -21.4098341586  W2        20              0.0000000000
        59        20  TIP3      H1            -22.0548787078      -33.7360563765      -20.8772341586  W2        20              0.0000000000
        60        20  TIP3      H2            -21.1839387078      -32.4979363765      -20.8969841586  W2        20              0.0000000000
        61        21  TIP3      OH2           -32.9218687078      -31.5818663765      -19.7649541586  W2        21              0.0000000000
        62        21  TIP3      H1            -32.3082387078      -30.9491063765      -19.3917141586  W2        21              0.0000000000
        63        21  TIP3      H2            -32.4097987078      -32.0543663765      -20.4212641586  W2        21              0.0000000000
        64        22  TIP3      OH2           -31.5390287078      -23.8341763765      -16.6426541586  W2        22              0.0000000000
        65        22  TIP3      H1            -31.5442687078      -22.9548263765      -17.0207241586  W2        22              0.0000000000
        66        22  TIP3      H2            -32.3926187078      -23.9177663765      -16.2176641586  W2        22              0.0000000000
        67        23  TIP3      OH2           -35.4179387078      -24.1633863765      -25.8607241586  W2        23              0.0000000000
        68        23  TIP3      H1            -35.6898487078      -23.9342863765      -26.7494341586  W2        23              0.0000000000
        69        23  TIP3      H2            -35.3723687078      -23.3255063765      -25.4001941586  W2        23              0.0000000000
        70        24  TIP3      OH2           -21.7929687078      -22.5417963765      -19.1478741586  W2        24              0.0000000000
        71        24  TIP3      H1            -22.7345987078      -22.4834063765      -18.9861841586  W2        24              0.0000000000
        72        24  TIP3      H2            -21.5163587078      -21.6357463765      -19.2849041586  W2        24              0.0000000000
        73        25  TIP3      OH2           -21.4922687078      -34.2552663765      -17.7304841586  W2        25              0.0000000000
        74        25  TIP3      H1            -22.2283487078      -33.6445563765      -17.7683541586  W2        25              0.0000000000
        75        25  TIP3      H2            -20.8088687078      -33.8403663765      -18.2568441586  W2        25              0.0000000000
        76        26  TIP3      OH2           -28.4891287078      -36.1685363765      -20.2646841586  W2        26              0.0000000000
        77        26  TIP3      H1            -28.6067087078      -37.1169363765      -20.3188541586  W2        26              0.0000000000
        78        26  TIP3      H2            -29.3441187078      -35.8359263765      -19.9915741586  W2        26              0.0000000000
        79        27  TIP3      OH2           -23.5408487078      -20.7604463765      -22.5227141586  W2        27              0.0000000000
        80        27  TIP3      H1            -23.1156187078      -21.4676563765      -23.0077541586  W2        27              0.0000000000
        81        27  TIP3      H2            -23.2238487078      -19.9591763765      -22.9394941586  W2        27              0.0000000000
        82        28  TIP3      OH2           -22.3811987078      -22.8595963765      -24.0140541586  W2        28              0.0000000000
        83        28  TIP3      H1            -22.6387187078      -23.5495863765      -24.6254641586  W2        28              0.0000000000
        84        28  TIP3      H2            -22.3101187078      -23.3024763765      -23.1684641586  W2        28              0.0000000000
        85        29  TIP3      OH2           -20.6951787078      -24.2929263765      -15.5367041586  W2        29              0.0000000000
        86        29  TIP3      H1            -20.5555487078      -24.8846763765      -16.2760041586  W2        29              0.0000000000
        87        29  TIP3      H2            -20.5278987078      -23.4203363765      -15.8928241586  W2        29              0.0000000000
        88        30  TIP3      OH2           -26.2226387078      -27.3309763765      -25.7641041586  W2        30              0.0000000000
        89        30  TIP3      H1            -26.9340887078      -26.7960063765      -26.1160541586  W2        30              0.0000000000
        90        30  TIP3      H2            -25.5316787078      -27.2757663765      -26.4242141586  W2        30              0.0000000000
        91        31  TIP3      OH2           -26.1687187078      -28.8735463765      -28.7256041586  W2        31              0.0000000000
        92        31  TIP3      H1            -25.4677287078      -28.8508563765      -28.0742041586  W2        31              0.0000000000
        93        31  TIP3      H2            -25.8664287078      -29.5015763765      -29.3816741586  W2        31              0.0000000000
        94        32  TIP3      OH2           -18.8532487078      -27.9531263765      -17.4706641586  W2        32              0.0000000000
        95        32  TIP3      H1            -19.5058387078      -27.2585663765      -17.3815741586  W2        32              0.0000000000
        96        32  TIP3      H2            -18.3882187078      -27.7430363765      -18.2805041586  W2        32              0.0000000000
        97        33  TIP3      OH2           -22.8168687078      -27.1216463765      -24.8125141586  W2        33              0.0000000000
        98        33  TIP3      H1            -23.5487687078      -26.8932763765      -24.2394541586  W2        33              0.0000000000
        99        33  TIP3      H2            -22.3696487078      -27.8353763765      -24.3577641586  W2        33              0.0000000000
       100        34  TIP3      OH2           -22.9195187078      -28.9473863765      -15.7448141586  W2        34              0.0000000000
       101        34  TIP3      H1            -22.8396087078      -28.1839463765      -15.1729641586  W2        34              0.0000000000
       102        34  TIP3      H2            -23.5207487078      -28.6681463765      -16.4353041586  W2        34              0.0000000000
       103        35  TIP3      OH2           -31.1714987078      -26.4910263765      -22.9300141586  W2        35              0.0000000000
       104        35  TIP3      H1            -31.5019787078      -26.8616863765      -23.7483141586  W2        35              0.0000000000
       105        35  TIP3      H2            -30.5830887078      -27.1616263765      -22.5831841586  W2        35              0.0000000000
       106        36  TIP3      OH2           -29.8047487078      -23.0629663765      -20.2487941586  W2        36              0.0000000000
       107        36  TIP3      H1            -29.8996187078      -23.6416563765      -21.0053341586  W2        36              0.0000000000
       108        36  TIP3      H2            -29.0753887078      -23.4343963765      -19.7525141586  W2        36              0.0000000000
       109        37  TIP3      OH2           -30.8049487078      -27.7224663765      -19.2965141586  W2        37              0.0000000000
       110        37  TIP3      H1            -30.2396987078      -27.6010463765      -20.0593941586  W2        37              0.0000000000
       111        37  TIP3      H2            -30.4860587078      -27.0849663765      -18.6576641586  W2        37              0.0000000000
       112        38  TIP3      OH2           -24.4957287078      -22.2192763765      -18.5624641586  W2        38              0.0000000000
       113        38  TIP3      H1            -24.7360687078      -21.5569663765      -17.9145441586  W2        38              0.0000000000
       114        38  TIP3      H2            -24.6939087078      -23.0537563765      -18.1375041586  W2        38              0.0000000000
       115        39  TIP3      OH2           -29.9248787078      -23.3231963765      -14.5793241586  W2        39              0.0000000000
       116        39  TIP3      H1            -30.2361287078      -22.5408763765      -14.1240041586  W2        39              0.0000000000
       117        39  TIP3      H2            -30.5748587078      -23.4762863765      -15.2651241586  W2        39              0.0000000000
       118        40  TIP3      OH2           -23.9459187078      -27.9593563765      -27.1273941586  W2        40              0.0000000000
       119        40  TIP3      H1            -23.3663687078      -27.8093263765      -26.3805041586  W2        40              0.0000000000
       120        40  TIP3      H2            -23.5319187078      -27.4886163765      -27.8507541586  W2        40              0.0000000000
       121        41  TIP3      OH2           -33.0048887078      -27.1250863765      -15.3507541586  W2        41              0.0000000000
       122        41  TIP3      H1            -32.9345687078      -26.4744063765      -14.6522541586  W2        41              0.0000000000
       123        41  TIP3      H2            -33.8956687078      -27.0223363765      -15.6856641586  W2        41              0.0000000000
       124        42  TIP3      OH2           -26.2194287078      -21.2225063765      -23.6920841586  W2        42              0.0000000000
       125        42  TIP3      H1            -25.7456687078      -20.9268763765      -22.9146641586  W2        42              0.0000000000
       126        42  TIP3      H2            -26.7824987078      -20.4843463765      -23.9251241586  W2        42              0.0000000000
       127        43  TIP3      OH2           -31.6852887078      -21.2516963765      -13.8159441586  W2        43              0.0000000000
       128        43  TIP3      H1            -31.6777587078      -21.3877263765      -14.7633941586  W2        43              0.0000000000
       129        43  TIP3      H2            -32.6012487078      -21.3688863765      -13.5639441586  W2        43              0.0000000000
       130        44  TIP3      OH2           -20.2470787078      -36.2093163765      -27.3144241586  W2        44              0.0000000000
       131        44  TIP3      H1            -21.1470087078      -36.0704163765      -27.0193641586  W2        44              0.0000000000
       132        44  TIP3      H2            -19.9952387078      -35.3778563765      -27.7162541586  W2        44              0.0000000000
       133        45  TIP3      OH2           -32.1812287078      -27.4215963765      -25.3407341586  W2        45              0.0000000000
       134        45  TIP3      H1            -32.4730987078      -26.6534263765      -25.8316041586  W2        45              0.0000000000
       135        45  TIP3      H2            -32.8557087078      -28.0809763765      -25.5035941586  W2        45              0.0000000000
       136        46  TIP3      OH2           -19.0579387078      -21.8430763765      -28.9380341586  W2        46              0.0000000000
       137        46  TIP3      H1            -18.9845887078      -20.9040563765      -28.7675041586  W2        46              0.0000000000
       138        46  TIP3      H2            -18.1524287078      -22.1482163765      -28.9943041586  W2        46              0.0000000000
       139        47  TIP3      OH2           -36.0882187078      -25.0586763765      -16.5257541586  W2        47              0.0000000000
       140        47  TIP3      H1            -36.5893787078      -25.0867363765      -17.3407841586  W2        47              0.0000000000
       141        47  TIP3      H2            -36.0828487078      -25.9643563765      -16.2160241586  W2        47              0.0000000000
       142        48  TIP3      OH2           -36.3379487078      -22.2782963765      -19.6417341586  W2        48              0.0000000000
       143        48  TIP3      H1            -35.3918887078      -22.4225963765      -19.6607841586  W2        48              0.0000000000
       144        48  TIP3      H2            -36.4503187078      -21.4940163765      -19.1046141586  W2        48              0.0000000000
       145        49  TIP3      OH2           -18.1400987078      -21.6123263765      -13.9593641586  W2        49              0.0000000000
       146        49  TIP3      H1            -18.1894187078      -22.5675163765      -13.9966041586  W2        49              0.0000000000
       147        49  TIP3      H2            -18.9668687078      -21.3447963765      -13.5579841586  W2        49              0.0000000000
       148        50  TIP3      OH2           -27.1616987078      -22.0384063765      -15.0832241586  W2        50              0.0000000000
       149        50  TIP3      H1            -27.0742387078      -21.2119463765      -14.6083141586  W2        50              0.0000000000
       150        50  TIP3      H2            -28.0251887078      -22.3680263765      -14.8342941586  W2        50              0.0000000000
       151        51  TIP3      OH2           -26.7471187078      -18.2660363765      -25.2771641586  W2        51              0.0000000000
       152        51  TIP3      H1            -26.8225187078      -18.3873163765      -26.2236441586  W2        51              0.0000000000
       153        51  TIP3      H2            -26.7142487078      -17.3167663765      -25.1587041586  W2        51              0.0000000000
       154        52  TIP3      OH2           -33.0937387078      -19.4773363765      -23.4962641586  W2        52              0.0000000000
       155        52  TIP3      H1            -32.9416987078      -19.8252963765      -22.6176141586  W2        52              0.0000000000
       156        52  TIP3      H2            -33.9446987078      -19.8336063765      -23.7515441586  W2        52              0.0000000000
       157        53  TIP3      OH2           -23.6455187078      -19.1120163765      -28.2749241586  W2        53              0.0000000000
       158        53  TIP3      H1            -23.2706787078      -19.8564063765      -28.7456641586  W2        53              0.0000000000
       159        53  TIP3      H2            -23.6411487078      -19.3819563765      -27.3565941586  W2        53              0.0000000000
       160        54  TIP3      OH2           -23.9767087078      -19.1863063765      -25.5257041586  W2        54              0.0000000000
       161        54  TIP3      H1            -24.9117287078      -19.0861163765      -25.3470041586  W2        54              0.0000000000
       162        54  TIP3      H2            -23.6965187078      -19.8957063765      -24.9473841586  W2        54              0.0000000000
       163        55  TIP3      OH2           -20.9881187078      -30.1190763765      -13.4791441586  W2        55              0.0000000000
       164        55  TIP3      H1            -21.3954387078      -29.6385163765      -14.1998141586  W2        55              0.0000000000
       165        55  TIP3      H2            -20.9475487078      -31.0244763765      -13.7870641586  W2        55              0.0000000000
       166        56  TIP3      OH2           -33.8391687078      -23.7351363765      -15.4824741586  W2        56              0.0000000000
       167        56  TIP3      H1            -33.6230387078      -24.0965763765      -14.6228941586  W2        56              0.0000000000
       168        56  TIP3      H2            -34.6946987078      -24.1097563765      -15.6921241586  W2        56              0.0000000000
       169        57  TIP3      OH2           -31.2203687078      -35.2650863765      -19.4870541586  W2        57              0.0000000000
       170        57  TIP3      H1            -32.0819987078      -35.3522663765      -19.8947641586  W2        57              0.0000000000
       171        57  TIP3      H2            -31.2427987078      -34.4090763765      -19.0592941586  W2        57              0.0000000000
       172        58  TIP3      OH2           -26.5575887078      -35.5430463765      -16.1123541586  W2        58              0.0000000000
       173        58  TIP3      H1            -26.1372787078      -35.9583363765      -15.3592941586  W2        58              0.0000000000
       174        58  TIP3      H2            -27.4906287078      -35.7217163765      -15.9951541586  W2        58              0.0000000000
       175        59  TIP3      OH2           -23.2310987078      -31.7875263765      -15.2589041586  W2        59              0.0000000000
       176        59  TIP3      H1            -23.7451487078      -31.9133063765      -14.4613041586  W2        59              0.0000000000
       177        59  TIP3      H2            -23.3866287078      -30.8752163765      -15.5032841586  W2        59              0.0000000000
       178        60  TIP3      OH2           -22.4686087078      -26.9265263765      -29.4976041586  W2        60              0.0000000000
       179        60  TIP3      H1            -22.4265287078      -27.1491363765      -30.4276041586  W2        60              0.0000000000
       180        60  TIP3      H2            -21.6193987078      -26.5278163765      -29.3076141586  W2        60              0.0000000000
       181        61  TIP3      OH2           -26.8958587078      -33.0507063765      -28.8272741586  W2        61              0.0000000000
       182        61  TIP3      H1            -27.1493787078      -33.0315463765      -27.9044641586  W2        61              0.0000000000
       183        61  TIP3      H2            -27.1526487078      -33.9221663765      -29.1286541586  W2        61              0.0000000000
       184        62  TIP3      OH2           -31.1293587078      -30.2996363765      -18.3920341586  W2        62              0.0000000000
       185        62  TIP3      H1            -31.7711487078      -30.3399063765      -17.6830241586  W2        62              0.0000000000
       186        62  TIP3      H2            -31.0921587078      -29.3731663765      -18.6297341586  W2        62              0.0000000000
       187        63  TIP3      OH2           -31.1324487078      -30.0786263765      -23.4800341586  W2        63              0.0000000000
       188        63  TIP3      H1            -32.0251587078      -30.4190163765      -23.5386541586  W2        63              0.0000000000
       189        63  TIP3      H2            -30.6817887078      -30.4555363765      -24.2357141586  W2        63              0.0000000000
       190        64  TIP3      OH2           -25.5968987078      -29.6625963765      -24.6629541586  W2        64              0.0000000000
       191        64  TIP3      H1            -26.0058687078      -28.8477363765      -24.9544741586  W2        64              0.0000000000
       192        64  TIP3      H2            -24.8762787078      -29.8025863765      -25.2772441586  W2        64              0.0000000000
       193        65  TIP3      OH2           -26.4947387078      -29.4869563765      -13.1748841586  W2        65              0.0000000000
       194        65  TIP3      H1            -27.0573587078      -30.1917963765      -12.8541041586  W2        65              0.0000000000
       195        65  TIP3      H2            -25.6683987078      -29.6077663765      -12.7071241586  W2        65              0.0000000000
       196        66  TIP3      OH2           -24.5921287078      -30.2165563765      -21.8489841586  W2        66              0.0000000000
       197        66  TIP3      H1            -24.7876787078      -29.6108763765      -22.5639241586  W2        66              0.0000000000
       198        66  TIP3      H2            -24.4108687078      -31.0500363765      -22.2833541586  W2        66              0.0000000000
       199        67  TIP3      OH2           -33.3793087078      -29.9792863765      -16.5248341586  W2        67              0.0000000000
       200        67  TIP3      H1            -33.4173687078      -29.5791263765      -15.6561241586  W2        67              0.0000000000
       201        67  TIP3      H2            -33.8701987078      -30.7960463765      -16.4345441586  W2        67              0.0000000000
       202        68  TIP3      OH2           -30.0135687078      -32.6050563765      -29.7262341586  W2        68              0.0000000000
       203        68  TIP3      H1            -30.4444987078      -33.0500463765      -28.9964941586  W2        68              0.0000000000
       204        68  TIP3      H2            -30.7316987078      -32.2334263765      -30.2384841586  W2        68              0.0000000000
       205        69  TIP3      OH2           -36.7712287078      -32.8631063765      -22.6743641586  W2        69              0.0000000000
       206        69  TIP3      H1            -36.1404587078      -32.8918963765      -21.9549741586  W2        69              0.0000000000
       207        69  TIP3      H2            -36.3217987078      -33.2882363765      -23.4047741586  W2        69              0.0000000000
       208        70  TIP3      OH2           -35.4970187078      -32.1169063765      -27.2503241586  W2        70              0.0000000000
       209        70  TIP3      H1            -35.0228487078      -31.5259163765      -27.8352341586  W2        70              0.0000000000
       210        70  TIP3      H2            -36.2143787078      -31.5866163765      -26.9033141586  W2        70              0.0000000000
       211        71  TIP3      OH2           -25.3282087078      -28.5784263765      -17.1777441586  W2        71              0.0000000000
       212        71  TIP3      H1            -25.0047287078      -29.2094563765      -17.8206941586  W2        71              0.0000000000
       213        71  TIP3      H2            -25.7682787078      -29.1132063765      -16.5170041586  W2        71              0.0000000000
       214        72  TIP3      OH2           -28.5509187078      -32.6508763765      -22.3936241586  W2        72              0.0000000000
       215        72  TIP3      H1            -29.4618087078      -32.5941963765      -22.1050241586  W2        72              0.0000000000
       216        72  TIP3      H2            -28.0456287078      -32.7113263765      -21.5829041586  W2        72              0.0000000000
       217        73  TIP3      OH2           -33.7225787078      -31.0222463765      -23.5668641586  W2        73              0.0000000000
       218        73  TIP3      H1            -34.6117787078      -30.9226963765      -23.9069041586  W2        73              0.0000000000
       219        73  TIP3      H2            -33.4260887078      -31.8639463765      -23.9130741586  W2        73              0.0000000000
       220        74  TIP3      OH2           -30.0693987078      -31.0219863765      -25.9104041586  W2        74              0.0000000000
       221        74  TIP3      H1            -29.1378487078      -30.8929863765      -25.7320941586  W2        74              0.0000000000
       222        74  TIP3      H2            -30.2843687078      -30.3525563765      -26.5599341586  W2        74              0.0000000000
       223        75  TIP3      OH2           -24.1457287078      -33.4162463765      -19.1294441586  W2        75              0.0000000000
       224        75  TIP3      H1            -24.8225687078      -33.2849363765      -18.4654741586  W2        75              0.0000000000
       225        75  TIP3      H2            -24.6312387078      -33.5712963765      -19.9396741586  W2        75              0.0000000000
       226        76  TIP3      OH2           -31.3953787078      -29.8277663765      -28.3437941586  W2        76              0.0000000000
       227        76  TIP3      H1            -31.9378687078      -30.2073863765      -29.0350341586  W2        76              0.0000000000
       228        76  TIP3      H2            -30.5618887078      -29.6332963765      -28.7723841586  W2        76              0.0000000000
       229        77  TIP3      OH2           -20.8582187078      -17.7447063765      -12.8526841586  W2        77              0.0000000000
       230        77  TIP3      H1            -20.6583487078      -17.3205163765      -13.6871541586  W2        77              0.0000000000
       231        77  TIP3      H2            -20.2028487078      -17.4008863765      -12.2456441586  W2        77              0.0000000000
       232        78  TIP3      OH2           -33.2602387078      -25.2705763765      -13.2446341586  W2        78              0.0000000000
       233        78  TIP3      H1            -32.5279987078      -25.0159863765      -12.6831841586  W2        78              0.0000000000
       234        78  TIP3      H2            -34.0403687078      -25.0660363765      -12.7290941586  W2        78              0.0000000000
       235        79  TIP3      OH2           -27.2309487078      -29.8635763765      -20.5066641586  W2        79              0.0000000000
       236        79  TIP3      H1            -26.6666087078      -30.4099163765      -21.0537041586  W2        79              0.0000000000
       237        79  TIP3      H2            -27.3786087078      -30.3853863765      -19.7179041586  W2        79              0.0000000000
       238        80  TIP3      OH2           -32.2289787078      -33.7269663765      -24.0881841586  W2        80              0.0000000000
       239        80  TIP3      H1            -32.5460287078      -34.6294363765      -24.1236441586  W2        80              0.0000000000
       240        80  TIP3      H2            -31.4475687078      -33.7252263765      -24.6410241586  W2        80              0.0000000000
       241        81  TIP3      OH2           -28.6043587078      -31.4749663765      -18.0926241586  W2        81              0.0000000000
       242        81  TIP3      H1            -29.4398287078      -31.0210163765      -17.9823841586  W2        81              0.0000000000
       243        81  TIP3      H2            -28.0802987078      -31.1991163765      -17.3406341586  W2        81              0.0000000000
       244        82  TIP3      OH2           -28.0600987078      -25.2621963765      -26.4079841586  W2        82              0.0000000000
       245        82  TIP3      H1            -28.8049987078      -25.7696663765      -26.7301941586  W2        82              0.0000000000
       246        82  TIP3      H2            -28.1943787078      -25.2133963765      -25.4615041586  W2        82              0.0000000000
       247        83  TIP3      OH2           -20.9102087078      -26.1293763765      -17.6212241586  W2        83              0.0000000000
       248        83  TIP3      H1            -20.2683287078      -25.6727463765      -18.1650041586  W2        83              0.0000000000
       249        83  TIP3      H2            -21.7405187078      -26.0161363765      -18.0838141586  W2        83              0.0000000000
       250        84  TIP3      OH2           -24.1624187078      -32.4482063765      -28.2087241586  W2        84              0.0000000000
       251        84  TIP3      H1            -25.1009987078      -32.3366463765      -28.3598441586  W2        84              0.0000000000
       252        84  TIP3      H2            -23.8652087078      -31.5915163765      -27.9021541586  W2        84              0.0000000000
       253        85  TIP3      OH2           -26.5408887078      -25.0778663765      -15.1710741586  W2        85              0.0000000000
       254        85  TIP3      H1            -26.8862787078      -25.4596263765      -14.3641141586  W2        85              0.0000000000
       255        85  TIP3      H2            -26.7408787078      -24.1445063765      -15.0997841586  W2        85              0.0000000000
       256        86  TIP3      OH2           -23.4440687078      -30.5809363765      -26.5479841586  W2        86              0.0000000000
       257        86  TIP3      H1            -22.5521687078      -30.7184363765      -26.2288641586  W2        86              0.0000000000
       258        86  TIP3      H2            -23.3877087078      -29.7903263765      -27.0846341586  W2        86              0.0000000000
       259        87  TIP3      OH2           -32.9352687078      -25.9671963765      -20.6381941586  W2        87              0.0000000000
       260        87  TIP3      H1            -32.1905487078      -25.9696263765      -21.2395441586  W2        87              0.0000000000
       261        87  TIP3      H2            -32.8576087078      -26.7908163765      -20.1566841586  W2        87              0.0000000000
       262        88  TIP3      OH2           -25.9346887078      -23.8037663765      -27.3825241586  W2        88              0.0000000000
       263        88  TIP3      H1            -26.2298487078      -22.9769763765      -27.0010441586  W2        88              0.0000000000
       264        88  TIP3      H2            -26.6376887078      -24.4230763765      -27.1863841586  W2        88              0.0000000000
       265        89  TIP3      OH2           -35.9272987078      -27.5065063765      -15.3233441586  W2        89              0.0000000000
       266        89  TIP3      H1            -35.7044387078      -27.9245463765      -14.4915941586  W2        89              0.0000000000
       267        89  TIP3      H2            -36.5292887078      -28.1190063765      -15.7460641586  W2        89              0.0000000000
       268        90  TIP3      OH2           -28.9108087078      -27.9895163765      -13.1103741586  W2        90              0.0000000000
       269        90  TIP3      H1            -29.2067287078      -28.1552163765      -14.0054641586  W2        90              0.0000000000
       270        90  TIP3      H2            -27.9792887078      -28.2094863765      -13.1209841586  W2        90              0.0000000000
       271        91  TIP3      OH2           -24.2905287078      -22.6163163765      -15.2205741586  W2        91              0.0000000000
       272        91  TIP3      H1            -25.1910987078      -22.4330563765      -15.4881841586  W2        91              0.0000000000
       273        91  TIP3      H2            -24.2564187078      -22.3573863765      -14.2996941586  W2        91              0.0000000000
       274        92  TIP3      OH2           -18.5591987078      -30.3715263765      -26.8533141586  W2        92              0.0000000000
       275        92  TIP3      H1            -19.1135687078      -30.7677263765      -27.5255641586  W2        92              0.0000000000
       276        92  TIP3      H2            -18.4588387078      -29.4610063765      -27.1309841586  W2        92              0.0000000000
       277        93  TIP3      OH2           -18.5959987078      -24.5713563765      -14.0161641586  W2        93              0.0000000000
       278        93  TIP3      H1            -19.4471487078      -24.3329763765      -14.3835241586  W2        93              0.0000000000
       279        93  TIP3      H2            -18.0056587078      -24.5880363765      -14.7694541586  W2        93              0.0000000000
       280        94  TIP3      OH2           -20.2640287078      -21.5854863765      -26.3881041586  W2        94              0.0000000000
       281        94  TIP3      H1            -20.6369187078      -22.4111063765      -26.0790441586  W2        94              0.0000000000
       282        94  TIP3      H2            -19.9866787078      -21.7685463765      -27.2857641586  W2        94              0.0000000000
       283        95  TIP3      OH2           -23.1036387078      -26.7775363765      -19.3669141586  W2        95              0.0000000000
       284        95  TIP3      H1            -24.0319487078      -27.0093463765      -19.3939841586  W2        95              0.0000000000
       285        95  TIP3      H2            -22.6525287078      -27.5545563765      -19.6970341586  W2        95              0.0000000000
       286        96  TIP3      OH2           -30.5603287078      -22.4493763765      -23.2340441586  W2        96              0.0000000000
       287        96  TIP3      H1            -30.0331087078      -21.6759363765      -23.4341641586  W2        96              0.0000000000
       288        96  TIP3      H2            -31.4404787078      -22.2244563765      -23.5356441586  W2        96              0.0000000000
       289        97  TIP3      OH2           -34.8055587078      -27.5869663765      -28.6468041586  W2        97              0.0000000000
       290        97  TIP3      H1            -34.1895687078      -26.9602463765      -28.2673241586  W2        97              0.0000000000
       291        97  TIP3      H2            -35.6672987078      -27.2709863765      -28.3751541586  W2        97              0.0000000000
       292        98  TIP3      OH2           -29.1330987078      -24.7863863765      -23.6576141586  W2        98              0.0000000000
       293        98  TIP3      H1            -29.3740987078      -23.8609463765      -23.6160841586  W2        98              0.0000000000
       294        98  TIP3      H2            -29.8737387078      -25.2452563765      -23.2612241586  W2        98              0.0000000000
       295        99  TIP3      OH2           -28.6184387078      -20.6370263765      -17.3425041586  W2        99              0.0000000000
       296        99  TIP3      H1            -28.2559687078      -19.7824663765      -17.5760641586  W2        99              0.0000000000
       297        99  TIP3      H2            -28.0869187078      -20.9288663765      -16.6018741586  W2        99              0.0000000000
       298       100  TIP3      OH2           -30.4500187078      -19.7646263765      -24.1123941586  W2        100             0.0000000000
       299       100  TIP3      H1            -31.3999687078      -19.6588863765      -24.0610641586  W2        100             0.0000000000
       300       100  TIP3      H2            -30.0982087078      -18.9438863765      -23.7676441586  W2        100             0.0000000000
       301       101  TIP3      OH2           -25.0743587078      -24.5379563765      -17.6419441586  W2        101             0.0000000000
       302       101  TIP3      H1            -25.5002287078      -24.7657863765      -16.8155441586  W2        101             0.0000000000
       303       101  TIP3      H2            -24.4937787078      -25.2767763765      -17.8244141586  W2        101             0.0000000000
       304       102  TIP3      OH2           -22.8714687078      -23.6089063765      -28.5680441586  W2        102             0.0000000000
       305       102  TIP3      H1            -22.5181587078      -23.9889263765      -27.7636941586  W2        102             0.0000000000
       306       102  TIP3      H2            -23.8201187078      -23.7024263765      -28.4811141586  W2        102             0.0000000000
       307       103  TIP3      OH2           -22.4159387078      -19.9860063765      -15.1724641586  W2        103             0.0000000000
       308       103  TIP3      H1            -23.0176187078      -20.5417163765      -15.6678341586  W2        103             0.0000000000
       309       103  TIP3      H2            -22.1345687078      -19.3190263765      -15.7987241586  W2        103             0.0000000000
       310       104  TIP3      OH2           -18.3680287078      -19.1296563765      -28.3670241586  W2        104             0.0000000000
       311       104  TIP3      H1            -17.6242387078      -18.5436063765      -28.5068641586  W2        104             0.0000000000
       312       104  TIP3      H2            -19.0622187078      -18.5610763765      -28.0337841586  W2        104             0.0000000000
       313       105  TIP3      OH2           -34.2933487078      -32.7532363765      -15.7652041586  W2        105             0.0000000000
       314       105  TIP3      H1            -35.1861187078      -32.4146963765      -15.8328041586  W2        105             0.0000000000
       315       105  TIP3      H2            -34.3920687078      -33.6086263765      -15.3471241586  W2        105             0.0000000000
       316       106  TIP3      OH2           -22.0055387078      -24.9367063765      -26.3412541586  W2        106             0.0000000000
       317       106  TIP3      H1            -22.2827787078      -25.6647763765      -25.7851441586  W2        106             0.0000000000
       318       106  TIP3      H2            -21.0782387078      -24.8175063765      -26.1359941586  W2        106             0.0000000000
       319       107  TIP3      OH2           -34.6421487078      -20.9487963765      -17.3302641586  W2        107             0.0000000000
       320       107  TIP3      H1            -34.4251187078      -21.8805563765      -17.3612941586  W2        107             0.0000000000
       321       107  TIP3      H2            -34.3957987078      -20.6742963765      -16.4469841586  W2        107             0.0000000000
       322       108  TIP3      OH2           -28.7806887078      -22.4972963765      -30.1210441586  W2        108             0.0000000000
       323       108  TIP3      H1            -28.5417087078      -23.2454863765      -30.6681541586  W2        108             0.0000000000
       324       108  TIP3      H2            -29.0495587078      -22.8851263765      -29.2882641586  W2        108             0.0000000000
       325       109  TIP3      OH2           -29.8436287078      -22.9269163765      -27.6647841586  W2        109             0.0000000000
       326       109  TIP3      H1            -29.6968287078      -23.4469363765      -26.8746941586  W2        109             0.0000000000
       327       109  TIP3      H2            -29.8464587078      -22.0201563765      -27.3581941586  W2        109             0.0000000000
       328       110  TIP3      OH2           -33.3905187078      -25.6745863765      -27.1542441586  W2        110             0.0000000000
       329       110  TIP3      H1            -34.0765887078      -25.3223363765      -26.5872741586  W2        110             0.0000000000
       330       110  TIP3      H2            -32.8677287078      -24.9116263765      -27.4008141586  W2        110             0.0000000000
       331       111  TIP3      OH2           -25.5590087078      -33.0122063765      -16.8753441586  W2        111             0.0000000000
       332       111  TIP3      H1            -24.8602187078      -32.9383363765      -16.2253741586  W2        111             0.0000000000
       333       111  TIP3      H2            -25.9398687078      -33.8767063765      -16.7210541586  W2        111             0.0000000000
       334       112  TIP3      OH2           -24.7745187078      -33.3600363765      -25.7781141586  W2        112             0.0000000000
       335       112  TIP3      H1            -24.5546887078      -32.8884963765      -26.5815741586  W2        112             0.0000000000
       336       112  TIP3      H2            -24.2161187078      -32.9657763765      -25.1080541586  W2        112             0.0000000000
       337       113  TIP3      OH2           -27.1059087078      -21.2295563765      -26.9153641586  W2        113             0.0000000000
       338       113  TIP3      H1            -27.9222987078      -20.7325863765      -26.8629341586  W2        113             0.0000000000
       339       113  TIP3      H2            -26.5762787078      -20.7542063765      -27.5554841586  W2        113             0.0000000000
       340       114  TIP3      OH2           -27.5745287078      -31.6321563765      -24.9432741586  W2        114             0.0000000000
       341       114  TIP3      H1            -26.7622687078      -31.1278363765      -24.8971041586  W2        114             0.0000000000
       342       114  TIP3      H2            -27.8192287078      -31.7771863765      -24.0293141586  W2        114             0.0000000000
       343       115  TIP3      OH2           -27.0388887078      -30.6458863765      -15.7586141586  W2        115             0.0000000000
       344       115  TIP3      H1            -26.9198587078      -30.0723463765      -15.0015741586  W2        115             0.0000000000
       345       115  TIP3      H2            -26.3834287078      -31.3339463765      -15.6438341586  W2        115             0.0000000000
       346       116  TIP3      OH2           -26.6908587078      -34.5508563765      -24.0051641586  W2        116             0.0000000000
       347       116  TIP3      H1            -27.0375087078      -33.9337963765      -23.3607341586  W2        116             0.0000000000
       348       116  TIP3      H2            -26.0321687078      -34.0502863765      -24.4866141586  W2        116             0.0000000000
       349       117  TIP3      OH2           -29.7675987078      -20.1858363765      -26.9336741586  W2        117             0.0000000000
       350       117  TIP3      H1            -29.6067287078      -19.3860863765      -27.4344141586  W2        117             0.0000000000
       351       117  TIP3      H2            -29.9648187078      -19.8792363765      -26.0486141586  W2        117             0.0000000000
       352       118  TIP3      OH2           -31.0331587078      -33.4879163765      -27.3179141586  W2        118             0.0000000000
       353       118  TIP3      H1            -31.1166787078      -32.5996063765      -26.9712741586  W2        118             0.0000000000
       354       118  TIP3      H2            -30.1431287078      -33.7532463765      -27.0862341586  W2        118             0.0000000000
       355       119  TIP3      OH2           -20.8343087078      -32.7388563765      -14.9236441586  W2        119             0.0000000000
       356       119  TIP3      H1            -21.7507287078      -32.4766863765      -15.0112741586  W2        119             0.0000000000
       357       119  TIP3      H2            -20.4988087078      -32.7419563765      -15.8201141586  W2        119             0.0000000000
       358       120  TIP3      OH2           -22.2322087078      -28.9887563765      -20.8279141586  W2        120             0.0000000000
       359       120  TIP3      H1            -23.0297687078      -29.4037363765      -21.1564141586  W2        120             0.0000000000
       360       120  TIP3      H2            -21.7870987078      -29.6793863765      -20.3368641586  W2        120             0.0000000000
       361       121  TIP3      OH2           -32.7746287078      -23.0606963765      -28.2574641586  W2        121             0.0000000000
       362       121  TIP3      H1            -32.1824787078      -22.3612163765      -27.9812241586  W2        121             0.0000000000
       363       121  TIP3      H2            -32.3153287078      -23.4937463765      -28.9770041586  W2        121             0.0000000000
       364       122  TIP3      OH2           -34.4587087078      -30.3963963765      -29.1415241586  W2        122             0.0000000000
       365       122  TIP3      H1            -34.5034487078      -29.4570863765      -28.9628241586  W2        122             0.0000000000
       366       122  TIP3      H2            -35.3463887078      -30.6319063765      -29.4113141586  W2        122             0.0000000000
       367       123  TIP3      OH2           -21.1457487078      -19.7325063765      -19.2055641586  W2        123             0.0000000000
       368       123  TIP3      H1            -21.3013187078      -19.0540663765      -19.8626341586  W2        123             0.0000000000
       369       123  TIP3      H2            -20.2131087078      -19.6605763765      -19.0025041586  W2        123             0.0000000000
       370       124  TIP3      OH2           -33.6505087078      -35.6147363765      -20.4684241586  W2        124             0.0000000000
       371       124  TIP3      H1            -33.8795287078      -35.5554863765      -21.3959241586  W2        124             0.0000000000
       372       124  TIP3      H2            -34.0931687078      -36.4061863765      -20.1620141586  W2        124             0.0000000000
       373       125  TIP3      OH2           -34.7201787078      -21.6740263765      -24.3078441586  W2        125             0.0000000000
       374       125  TIP3      H1            -35.5523187078      -21.2017563765      -24.2807041586  W2        125             0.0000000000
       375       125  TIP3      H2            -34.1743487078      -21.1642663765      -24.9065341586  W2        125             0.0000000000
       376       126  TIP3      OH2           -35.4318087078      -19.0616563765      -12.9780441586  W2        126             0.0000000000
       377       126  TIP3      H1            -34.8915887078      -19.2782563765      -12.2181241586  W2        126             0.0000000000
       378       126  TIP3      H2            -35.9130087078      -19.8670563765      -13.1677941586  W2        126             0.0000000000
       379       127  TIP3      OH2           -30.8344687078      -20.1422163765      -11.3576241586  W2        127             0.0000000000
       380       127  TIP3      H1            -30.0667487078      -20.6011363765      -11.0167041586  W2        127             0.0000000000
       381       127  TIP3      H2            -30.8558487078      -20.3682363765      -12.2875041586  W2        127             0.0000000000
       382       128  TIP3      OH2           -26.7425087078      -20.6341563765      -29.9824441586  W2        128             0.0000000000
       383       128  TIP3      H1            -27.3864087078      -21.2652963765      -29.6610741586  W2        128             0.0000000000
       384       128  TIP3      H2            -25.9806787078      -21.1653563765      -30.2140941586  W2        128             0.0000000000
       385       129  TIP3      OH2           -24.2575987078      -21.7621063765      -12.6284741586  W2        129             0.0000000000
       386       129  TIP3      H1            -24.6086487078      -22.6188063765      -12.3854341586  W2        129             0.0000000000
       387       129  TIP3      H2            -23.5312787078      -21.6194363765      -12.0215741586  W2        129             0.0000000000
       388       130  TIP3      OH2           -22.1382187078      -20.8171663765      -29.7486441586  W2        130             0.0000000000
       389       130  TIP3      H1            -21.8551787078      -21.6116463765      -29.2959541586  W2        130             0.0000000000
       390       130  TIP3      H2            -21.3984287078      -20.5840663765      -30.3095341586  W2        130             0.0000000000
       391       131  TIP3      OH2           -35.5248587078      -25.2512463765      -12.0236141586  W2        131             0.0000000000
       392       131  TIP3      H1            -35.3808087078      -26.1531763765      -12.3099441586  W2        131             0.0000000000
       393       131  TIP3      H2            -36.2971187078      -24.9650363765      -12.5113841586  W2        131             0.0000000000
       394       132  TIP3      OH2           -31.1834887078      -24.9076763765      -29.8911541586  W2        132             0.0000000000
       395       132  TIP3      H1            -31.1190787078      -25.7017163765      -29.3605141586  W2        132             0.0000000000
       396       132  TIP3      H2            -30.5305687078      -25.0263963765      -30.5809541586  W2        132             0.0000000000
       397       133  TIP3      OH2           -28.8692487078      -25.2814363765      -12.5909741586  W2        133             0.0000000000
       398       133  TIP3      H1            -29.1978687078      -25.0106263765      -13.4482341586  W2        133             0.0000000000
       399       133  TIP3      H2            -28.7174287078      -26.2224563765      -12.6784741586  W2        133             0.0000000000
       400       134  TIP3      OH2           -25.8311487078      -23.8605063765      -30.1553541586  W2        134             0.0000000000
       401       134  TIP3      H1            -26.0997387078      -23.6802963765      -29.2544641586  W2        134             0.0000000000
       402       134  TIP3      H2            -26.0375887078      -24.7858863765      -30.2867741586  W2        134             0.0000000000
       403       135  TIP3      OH2           -23.1347287078      -25.3657063765      -15.2077441586  W2        135             0.0000000000
       404       135  TIP3      H1            -22.3892487078      -24.7773363765      -15.3273441586  W2        135             0.0000000000
       405       135  TIP3      H2            -23.8920487078      -24.7837363765      -15.1444341586  W2        135             0.0000000000
       406       136  TIP3      OH2           -34.6922087078      -28.0509163765      -12.6036841586  W2        136             0.0000000000
       407       136  TIP3      H1            -34.2840887078      -28.9082563765      -12.7246241586  W2        136             0.0000000000
       408       136  TIP3      H2            -34.9524487078      -28.0367863765      -11.6826541586  W2        136             0.0000000000
       409       137  TIP3      OH2           -30.0341087078      -26.9350563765      -27.5853541586  W2        137             0.0000000000
       410       137  TIP3      H1            -30.4939087078      -27.4192263765      -26.8995041586  W2        137             0.0000000000
       411       137  TIP3      H2            -29.7792387078      -27.6035163765      -28.2213041586  W2        137             0.0000000000
       412       138  TIP3      OH2           -30.7451787078      -29.0423463765      -15.2293941586  W2        138             0.0000000000
       413       138  TIP3      H1            -31.3635687078      -28.3676863765      -14.9489241586  W2        138             0.0000000000
       414       138  TIP3      H2            -30.4010587078      -28.7209563765      -16.0627741586  W2        138             0.0000000000
       415       139  TIP3      OH2           -28.9630687078      -28.6918763765      -29.3230341586  W2        139             0.0000000000
       416       139  TIP3      H1            -29.1435687078      -28.8467563765      -30.2502041586  W2        139             0.0000000000
       417       139  TIP3      H2            -28.0130187078      -28.5840063765      -29.2782441586  W2        139             0.0000000000
       418       140  TIP3      OH2           -25.7253587078      -26.5708163765      -11.9519141586  W2        140             0.0000000000
       419       140  TIP3      H1            -24.7722387078      -26.4869063765      -11.9793141586  W2        140             0.0000000000
       420       140  TIP3      H2            -25.8858987078      -27.2826363765      -11.3324241586  W2        140             0.0000000000
       421       141  TIP3      OH2           -19.5732387078      -26.3374563765      -29.8772241586  W2        141             0.0000000000
       422       141  TIP3      H1            -19.8467587078      -26.7619063765      -30.6903941586  W2        141             0.0000000000
       423       141  TIP3      H2            -19.5338287078      -25.4060063765      -30.0941841586  W2        141             0.0000000000
       424       142  TIP3      OH2           -30.4058087078      -31.6872663765      -14.1470841586  W2        142             0.0000000000
       425       142  TIP3      H1            -30.2557187078      -32.4161363765      -14.7491141586  W2        142             0.0000000000
       426       142  TIP3      H2            -30.4035687078      -30.9100963765      -14.7058641586  W2        142             0.0000000000
       427       143  TIP3      OH2           -29.9932387078      -33.3176863765      -16.6543441586  W2        143             0.0000000000
       428       143  TIP3      H1            -29.4574887078      -32.8660163765      -17.3064141586  W2        143             0.0000000000
       429       143  TIP3      H2            -30.8452787078      -33.4257063765      -17.0769341586  W2        143             0.0000000000
       430       144  TIP3      OH2           -28.4113987078      -27.8780663765      -16.4148241586  W2        144             0.0000000000
       431       144  TIP3      H1            -27.6609187078      -28.0343163765      -16.9880441586  W2        144             0.0000000000
       432       144  TIP3      H2            -28.7505687078      -27.0264063765      -16.6902741586  W2        144             0.0000000000
       433       145  TIP3      OH2           -23.9957787078      -30.0628863765      -11.3862941586  W2        145             0.0000000000
       434       145  TIP3      H1            -23.8036487078      -30.9939463765      -11.4978441586  W2        145             0.0000000000
       435       145  TIP3      H2            -23.1381487078      -29.6379363765      -11.3967541586  W2        145             0.0000000000
       436       146  TIP3      OH2           -22.6790587078      -27.2743663765      -13.3090241586  W2        146             0.0000000000
       437       146  TIP3      H1            -22.9605587078      -26.5649063765      -13.8866441586  W2        146             0.0000000000
       438       146  TIP3      H2            -21.7366287078      -27.3470663765      -13.4599041586  W2        146             0.0000000000
       439       147  TIP3      OH2           -31.9271787078      -30.4889163765      -12.2355241586  W2        147             0.0000000000
       440       147  TIP3      H1            -32.6942787078      -31.0214363765      -12.4457641586  W2        147             0.0000000000
       441       147  TIP3      H2            -31.2482787078      -30.7988763765      -12.8348941586  W2        147             0.0000000000
       442       148  TIP3      OH2           -29.1876887078      -35.8611163765      -16.2229841586  W2        148             0.0000000000
       443       148  TIP3      H1            -29.2857287078      -34.9147963765      -16.3283641586  W2        148             0.0000000000
       444       148  TIP3      H2            -29.9300687078      -36.2337363765      -16.6986341586  W2        148             0.0000000000
       445       149  TIP3      OH2           -27.9236387078      -31.5395763765      -12.6591441586  W2        149             0.0000000000
       446       149  TIP3      H1            -28.1590987078      -31.7589063765      -11.7576541586  W2        149             0.0000000000
       447       149  TIP3      H2            -28.7069487078      -31.7464563765      -13.1688941586  W2        149             0.0000000000
       448       150  TIP3      OH2           -25.2079787078      -32.4122263765      -13.5837941586  W2        150             0.0000000000
       449       150  TIP3      H1            -26.1554387078      -32.3802563765      -13.4514641586  W2        150             0.0000000000
       450       150  TIP3      H2            -24.8953087078      -33.0375163765      -12.9299741586  W2        150             0.0000000000
       451       151  TIP3      OH2           -23.5738287078      -33.7781163765      -11.5786041586  W2        151             0.0000000000
       452       151  TIP3      H1            -23.6706487078      -34.7303863765      -11.5844141586  W2        151             0.0000000000
       453       151  TIP3      H2            -23.8955187078      -33.5094363765      -10.7180541586  W2        151             0.0000000000
       454       152  TIP3      OH2           -33.7468987078      -32.5685363765      -12.5310541586  W2        152             0.0000000000
       455       152  TIP3      H1            -33.5351587078      -33.2749263765      -13.1413041586  W2        152             0.0000000000
       456       152  TIP3      H2            -33.8581487078      -33.0059363765      -11.6869341586  W2        152             0.0000000000
       457       153  TIP3      OH2           -28.9658787078      -36.5673763765      -13.5517041586  W2        153             0.0000000000
       458       153  TIP3      H1            -28.2540387078      -37.2071563765      -13.5657941586  W2        153             0.0000000000
       459       153  TIP3      H2            -29.0668387078      -36.3005463765      -14.4653941586  W2        153             0.0000000000
       460       154  TIP3      OH2           -28.6121287078      -34.8845363765      -11.4980741586  W2        154             0.0000000000
       461       154  TIP3      H1            -28.7439087078      -35.3601563765      -12.3182241586  W2        154             0.0000000000
       462       154  TIP3      H2            -29.2113887078      -34.1401763765      -11.5533641586  W2        154             0.0000000000
       463       155  TIP3      OH2           -29.0658987078      -18.0015063765      -28.3216741586  W2        155             0.0000000000
       464       155  TIP3      H1            -28.1328287078      -17.8436363765      -28.1778341586  W2        155             0.0000000000
       465       155  TIP3      H2            -29.3300187078      -17.3262063765      -28.9465241586  W2        155             0.0000000000
       466       156  TIP3      OH2           -35.4974087078      -23.3651263765      -28.8388641586  W2        156             0.0000000000
       467       156  TIP3      H1            -34.5834887078      -23.2862363765      -28.5654741586  W2        156             0.0000000000
       468       156  TIP3      H2            -35.4900987078      -24.0521663765      -29.5053041586  W2        156             0.0000000000
       469       157  TIP3      OH2           -36.8483487078      -17.9722763765      -23.7614741586  W2        157             0.0000000000
       470       157  TIP3      H1            -37.4956387078      -18.4341063765      -24.2943541586  W2        157             0.0000000000
       471       157  TIP3      H2            -36.4938887078      -18.6439463765      -23.1788541586  W2        157             0.0000000000
       472       158  TIP3      OH2           -35.9784287078      -19.8915763765      -21.9568541586  W2        158             0.0000000000
       473       158  TIP3      H1            -36.3127487078      -20.7718463765      -21.7848341586  W2        158             0.0000000000
       474       158  TIP3      H2            -35.7561887078      -19.5460763765      -21.0922941586  W2        158             0.0000000000
       475       159  TIP3      OH2           -18.4299487078      -19.0819363765      -18.9763741586  W2        159             0.0000000000
       476       159  TIP3      H1            -18.4512787078      -18.8970963765      -18.0374341586  W2        159             0.0000000000
       477       159  TIP3      H2            -17.7393287078      -18.5135363765      -19.3172341586  W2        159             0.0000000000
       478       160  TIP3      OH2           -18.8666587078      -19.5148263765      -16.0544641586  W2        160             0.0000000000
       479       160  TIP3      H1            -19.3537887078      -20.2504163765      -16.4257241586  W2        160             0.0000000000
       480       160  TIP3      H2            -18.3173887078      -19.9084363765      -15.3765241586  W2        160             0.0000000000
       481       161  TIP3      OH2           -20.4159287078      -23.7250163765      -11.4164341586  W2        161             0.0000000000
       482       161  TIP3      H1            -21.2818187078      -23.8300463765      -11.0222041586  W2        161             0.0000000000
       483       161  TIP3      H2            -20.0393387078      -22.9666863765      -10.9699641586  W2        161             0.0000000000
       484       162  TIP3      OH2           -19.1149587078      -25.4686463765      -25.9021841586  W2        162             0.0000000000
       485       162  TIP3      H1            -18.2648187078      -25.0475563765      -25.7750241586  W2        162             0.0000000000
       486       162  TIP3      H2            -19.1094487078      -26.2086363765      -25.2950441586  W2        162             0.0000000000
       487       163  TIP3      OH2           -18.7203987078      -27.4149063765      -24.0786141586  W2        163             0.0000000000
       488       163  TIP3      H1            -19.4469387078      -27.8946463765      -23.6808541586  W2        163             0.0000000000
       489       163  TIP3      H2            -18.1390687078      -27.2094363765      -23.3464541586  W2        163             0.0000000000
       490       164  TIP3      OH2           -18.9612787078      -24.6301563765      -19.1308541586  W2        164             0.0000000000
       491       164  TIP3      H1            -18.1278587078      -25.0081563765      -19.4114941586  W2        164             0.0000000000
       492       164  TIP3      H2            -18.8492487078      -23.6870363765      -19.2499441586  W2        164             0.0000000000
       493       165  TIP3      OH2           -20.4750487078      -21.7524063765      -16.8240141586  W2        165             0.0000000000
       494       165  TIP3      H1            -21.1225187078      -21.4272563765      -16.1984941586  W2        165             0.0000000000
       495       165  TIP3      H2            -20.9926487078      -22.1926363765      -17.4981841586  W2        165             0.0000000000
       496       166  TIP3      OH2           -18.4520887078      -27.5140563765      -27.6874841586  W2        166             0.0000000000
       497       166  TIP3      H1            -18.9739787078      -27.1576463765      -28.4063941586  W2        166             0.0000000000
       498       166  TIP3      H2            -18.4851687078      -26.8392763765      -27.0093941586  W2        166             0.0000000000
       499       167  TIP3      OH2           -20.1031887078      -30.2744963765      -29.1367741586  W2        167             0.0000000000
       500       167  TIP3      H1            -20.0067487078      -29.6077963765      -29.8168041586  W2        167             0.0000000000
       501       167  TIP3      H2            -20.2432287078      -31.0898663765      -29.6182241586  W2        167             0.0000000000
       502       168  TIP3      OH2           -20.9337187078      -28.8942563765      -23.5157441586  W2        168             0.0000000000
       503       168  TIP3      H1            -21.0838387078      -29.8393963765      -23.5359641586  W2        168             0.0000000000
       504       168  TIP3      H2            -21.2872687078      -28.6131163765      -22.6718341586  W2        168             0.0000000000
       505       169  TIP3      OH2           -35.8984787078      -26.8160363765      -19.5053641586  W2        169             0.0000000000
       506       169  TIP3      H1            -35.7141887078      -26.8978663765      -20.4410741586  W2        169             0.0000000000
       507       169  TIP3      H2            -35.0491887078      -26.9403363765      -19.0817241586  W2        169             0.0000000000
       508       170  TIP3      OH2           -20.0774287078      -26.9239263765      -13.8769141586  W2        170             0.0000000000
       509       170  TIP3      H1            -19.4946987078      -27.6586963765      -13.6851941586  W2        170             0.0000000000
       510       170  TIP3      H2            -19.5134987078      -26.1518963765      -13.8303341586  W2        170             0.0000000000
       511       171  TIP3      OH2           -18.5807187078      -29.0213463765      -13.1923741586  W2        171             0.0000000000
       512       171  TIP3      H1            -19.4440487078      -29.4001363765      -13.3579041586  W2        171             0.0000000000
       513       171  TIP3      H2            -17.9763487078      -29.7598663765      -13.2667941586  W2        171             0.0000000000
       514       172  TIP3      OH2           -20.8558087078      -32.8665163765      -30.0192241586  W2        172             0.0000000000
       515       172  TIP3      H1            -20.2452287078      -33.2378363765      -29.3824041586  W2        172             0.0000000000
       516       172  TIP3      H2            -21.6926587078      -33.2878263765      -29.8232241586  W2        172             0.0000000000
       517       173  TIP3      OH2           -21.2232387078      -31.3116763765      -25.0532341586  W2        173             0.0000000000
       518       173  TIP3      H1            -20.9435287078      -32.2186363765      -24.9290641586  W2        173             0.0000000000
       519       173  TIP3      H2            -20.4640687078      -30.8775263765      -25.4423141586  W2        173             0.0000000000
       520       174  TIP3      OH2           -20.6114087078      -30.7299363765      -19.6173441586  W2        174             0.0000000000
       521       174  TIP3      H1            -19.6786087078      -30.5179463765      -19.6517441586  W2        174             0.0000000000
       522       174  TIP3      H2            -20.8466587078      -30.6287263765      -18.6950441586  W2        174             0.0000000000
       523       175  TIP3      OH2           -20.5822187078      -29.9934063765      -16.8414041586  W2        175             0.0000000000
       524       175  TIP3      H1            -21.4250887078      -29.7253663765      -16.4754241586  W2        175             0.0000000000
       525       175  TIP3      H2            -20.1397887078      -29.1712163765      -17.0522941586  W2        175             0.0000000000
       526       176  TIP3      OH2           -36.3009987078      -31.5455363765      -13.3644841586  W2        176             0.0000000000
       527       176  TIP3      H1            -35.3815087078      -31.6677063765      -13.1281741586  W2        176             0.0000000000
       528       176  TIP3      H2            -36.7505487078      -32.2955663765      -12.9751341586  W2        176             0.0000000000
       529       177  TIP3      OH2           -18.2990587078      -36.0133863765      -11.4879041586  W2        177             0.0000000000
       530       177  TIP3      H1            -17.9493587078      -36.6670363765      -12.0934341586  W2        177             0.0000000000
       531       177  TIP3      H2            -18.1521087078      -35.1759763765      -11.9276441586  W2        177             0.0000000000
       532       178  TIP3      OH2           -20.6097587078      -34.0487463765      -25.0050341586  W2        178             0.0000000000
       533       178  TIP3      H1            -20.4272587078      -34.4975963765      -24.1795341586  W2        178             0.0000000000
       534       178  TIP3      H2            -21.2094687078      -34.6333063765      -25.4685741586  W2        178             0.0000000000
       535       179  TIP3      OH2           -35.0797487078      -33.2333763765      -20.4731941586  W2        179             0.0000000000
       536       179  TIP3      H1            -34.6345887078      -34.0251263765      -20.1712241586  W2        179             0.0000000000
       537       179  TIP3      H2            -34.6134487078      -32.5168563765      -20.0426341586  W2        179             0.0000000000
       538       180  TIP3      OH2           -36.7757187078      -30.2340763765      -19.4041741586  W2        180             0.0000000000
       539       180  TIP3      H1            -36.2837387078      -30.4550263765      -20.1949741586  W2        180             0.0000000000
       540       180  TIP3      H2            -36.4136287078      -29.3937363765      -19.1232241586  W2        180             0.0000000000
       541       181  TIP3      OH2           -18.7793387078      -33.9039263765      -13.1387741586  W2        181             0.0000000000
       542       181  TIP3      H1            -19.6967687078      -33.6332163765      -13.1744241586  W2        181             0.0000000000
       543       181  TIP3      H2            -18.6563987078      -34.4390863765      -13.9228041586  W2        181             0.0000000000
       544       182  TIP3      OH2           -18.7431387078      -33.9809363765      -28.4770041586  W2        182             0.0000000000
       545       182  TIP3      H1            -18.3308787078      -34.7023663765      -28.9522041586  W2        182             0.0000000000
       546       182  TIP3      H2            -18.0614887078      -33.3114763765      -28.4185741586  W2        182             0.0000000000
       547       183  TIP3      OH2           -36.4620687078      -33.9761663765      -25.3499341586  W2        183             0.0000000000
       548       183  TIP3      H1            -37.3872287078      -33.7675063765      -25.4793841586  W2        183             0.0000000000
       549       183  TIP3      H2            -36.0080787078      -33.4920863765      -26.0397041586  W2        183             0.0000000000
       550       184  TIP3      OH2           -21.6913487078      -18.9919963765      -23.4041941586  W2        184             0.0000000000
       551       184  TIP3      H1            -21.0390587078      -19.3397863765      -24.0122841586  W2        184             0.0000000000
       552       184  TIP3      H2            -21.1809687078      -18.5036763765      -22.7582241586  W2        184             0.0000000000
       553       185  TIP3      OH2           -36.4985287078      -35.2382663765      -17.0056841586  W2        185             0.0000000000
       554       185  TIP3      H1            -37.1634787078      -35.4842363765      -16.3625941586  W2        185             0.0000000000
       555       185  TIP3      H2            -36.9413987078      -34.6162263765      -17.5828841586  W2        185             0.0000000000
       556       186  TIP3      OH2           -34.3065987078      -22.0628563765      -12.8611041586  W2        186             0.0000000000
       557       186  TIP3      H1            -35.1273487078      -21.8882063765      -13.3216341586  W2        186             0.0000000000
       558       186  TIP3      H2            -34.5588187078      -22.1363863765      -11.9406641586  W2        186             0.0000000000
       559       187  TIP3      OH2           -31.3523087078      -21.0887363765      -16.6027041586  W2        187             0.0000000000
       560       187  TIP3      H1            -31.7771987078      -20.2788863765      -16.8852441586  W2        187             0.0000000000
       561       187  TIP3      H2            -30.4480287078      -21.0033263765      -16.9047241586  W2        187             0.0000000000
       562       188  TIP3      OH2           -27.0411687078      -19.6897363765      -13.6433341586  W2        188             0.0000000000
       563       188  TIP3      H1            -26.8564187078      -20.0231263765      -12.7653041586  W2        188             0.0000000000
       564       188  TIP3      H2            -26.1947187078      -19.3798763765      -13.9654141586  W2        188             0.0000000000
       565       189  TIP3      OH2           -24.6961287078      -18.4038463765      -14.3991941586  W2        189             0.0000000000
       566       189  TIP3      H1            -24.0192387078      -19.0366163765      -14.6392741586  W2        189             0.0000000000
       567       189  TIP3      H2            -24.3742487078      -18.0027963765      -13.5918641586  W2        189             0.0000000000
       568       190  TIP3      OH2           -19.7787487078      -35.8142963765      -15.3196941586  W2        190             0.0000000000
       569       190  TIP3      H1            -20.5913987078      -35.4892663765      -15.7072241586  W2        190             0.0000000000
       570       190  TIP3      H2            -19.5458987078      -36.5744463765      -15.8527841586  W2        190             0.0000000000
       571       191  TIP3      OH2           -33.9506387078      -17.8323463765      -16.5551741586  W2        191             0.0000000000
       572       191  TIP3      H1            -34.6709987078      -17.3922463765      -17.0064041586  W2        191             0.0000000000
       573       191  TIP3      H2            -34.3162387078      -18.0828763765      -15.7067741586  W2        191             0.0000000000
       574       192  TIP3      OH2           -31.4833787078      -18.2319563765      -17.5254541586  W2        192             0.0000000000
       575       192  TIP3      H1            -32.3481587078      -18.1601063765      -17.1214441586  W2        192             0.0000000000
       576       192  TIP3      H2            -31.5384787078      -17.6852263765      -18.3092041586  W2        192             0.0000000000
       577       193  TIP3      OH2           -26.7728187078      -18.3440663765      -18.3498541586  W2        193             0.0000000000
       578       193  TIP3      H1            -27.2294187078      -17.8150963765      -19.0040141586  W2        193             0.0000000000
       579       193  TIP3      H2            -26.6100187078      -17.7409263765      -17.6246241586  W2        193             0.0000000000
       580       194  TIP3      OH2           -24.4451887078      -19.4661063765      -17.4048241586  W2        194             0.0000000000
       581       194  TIP3      H1            -25.3498187078      -19.3010863765      -17.6706141586  W2        194             0.0000000000
       582       194  TIP3      H2            -24.0163287078      -18.6128863765      -17.4704841586  W2        194             0.0000000000
       583       195  TIP3      OH2           -21.8409987078      -17.8961963765      -17.1100441586  W2        195             0.0000000000
       584       195  TIP3      H1            -22.0227987078      -16.9803063765      -17.3205541586  W2        195             0.0000000000
       585       195  TIP3      H2            -21.6642187078      -18.3064863765      -17.9565841586  W2        195             0.0000000000
       586       196  TIP3      OH2           -34.5358287078      -19.2090963765      -19.6449941586  W2        196             0.0000000000
       587       196  TIP3      H1            -34.5542287078      -19.6345863765      -18.7877641586  W2        196             0.0000000000
       588       196  TIP3      H2            -33.7310387078      -19.5275963765      -20.0537741586  W2        196             0.0000000000
       589       197  TIP3      OH2           -32.3945187078      -20.4992263765      -20.9900041586  W2        197             0.0000000000
       590       197  TIP3      H1            -32.6134487078      -21.4154863765      -20.8204041586  W2        197             0.0000000000
       591       197  TIP3      H2            -31.5702987078      -20.3591863765      -20.5238641586  W2        197             0.0000000000
       592       198  TIP3      OH2           -29.8572687078      -20.0292963765      -20.1412041586  W2        198             0.0000000000
       593       198  TIP3      H1            -29.6446987078      -20.9173963765      -20.4281141586  W2        198             0.0000000000
       594       198  TIP3      H2            -29.7927587078      -20.0635263765      -19.1868041586  W2        198             0.0000000000
       595       199  TIP3      OH2           -26.3488987078      -34.3652363765      -20.9968741586  W2        199             0.0000000000
       596       199  TIP3      H1            -27.0232187078      -34.9946763765      -20.7412941586  W2        199             0.0000000000
       597       199  TIP3      H2            -25.7849787078      -34.8493463765      -21.6000841586  W2        199             0.0000000000
       598       200  TIP3      OH2           -21.2061787078      -36.2578363765      -20.8841641586  W2        200             0.0000000000
       599       200  TIP3      H1            -20.6024187078      -35.7102963765      -21.3860641586  W2        200             0.0000000000
       600       200  TIP3      H2            -22.0759787078      -35.9387963765      -21.1247541586  W2        200             0.0000000000
       601       201  TIP3      OH2           -19.4791387078      -35.1189663765      -22.5510741586  W2        201             0.0000000000
       602       201  TIP3      H1            -18.8673887078      -35.6333963765      -23.0777141586  W2        201             0.0000000000
       603       201  TIP3      H2            -19.0967987078      -34.2417563765      -22.5276341586  W2        201             0.0000000000
       604       202  TIP3      OH2           -34.0221487078      -35.7312063765      -23.1748841586  W2        202             0.0000000000
       605       202  TIP3      H1            -34.7991687078      -35.9657163765      -23.6822941586  W2        202             0.0000000000
       606       202  TIP3      H2            -33.4917887078      -36.5279963765      -23.1660841586  W2        202             0.0000000000
       607       203  TIP3      OH2           -35.1858087078      -35.9333963765      -27.3712741586  W2        203             0.0000000000
       608       203  TIP3      H1            -34.7467387078      -35.3223463765      -27.9629241586  W2        203             0.0000000000
       609       203  TIP3      H2            -35.8195687078      -35.3949863765      -26.8972741586  W2        203             0.0000000000
       610       204  TIP3      OH2           -29.4428887078      -35.8044963765      -23.3615741586  W2        204             0.0000000000
       611       204  TIP3      H1            -28.5685487078      -35.4160663765      -23.3911441586  W2        204             0.0000000000
       612       204  TIP3      H2            -29.5788087078      -36.0197163765      -22.4388541586  W2        204             0.0000000000
       613       205  TIP3      OH2           -23.8860487078      -35.7745163765      -21.7124041586  W2        205             0.0000000000
       614       205  TIP3      H1            -23.8098887078      -35.6793563765      -22.6618041586  W2        205             0.0000000000
       615       205  TIP3      H2            -24.1611287078      -36.6822263765      -21.5834941586  W2        205             0.0000000000
       616       206  TIP3      OH2           -22.5327887078      -35.7487363765      -26.0199041586  W2        206             0.0000000000
       617       206  TIP3      H1            -23.2356787078      -35.1338163765      -26.2297641586  W2        206             0.0000000000
       618       206  TIP3      H2            -22.9776487078      -36.5860663765      -25.8888141586  W2        206             0.0000000000
       619       207  TIP3      OH2           -35.2848587078      -19.9851763765      -26.4737641586  W2        207             0.0000000000
       620       207  TIP3      H1            -35.9698687078      -20.0232863765      -27.1412541586  W2        207             0.0000000000
       621       207  TIP3      H2            -35.2811387078      -19.0724163765      -26.1855541586  W2        207             0.0000000000
       622       208  TIP3      OH2           -33.3248987078      -34.0172463765      -28.9288641586  W2        208             0.0000000000
       623       208  TIP3      H1            -32.8335587078      -34.6470063765      -29.4563141586  W2        208             0.0000000000
       624       208  TIP3      H2            -32.7012687078      -33.7213063765      -28.2657441586  W2        208             0.0000000000
       625       209  TIP3      OH2           -28.2988887078      -33.7240963765      -26.4718141586  W2        209             0.0000000000
       626       209  TIP3      H1            -28.1207587078      -34.3707763765      -25.7889541586  W2        209             0.0000000000
       627       209  TIP3      H2            -28.3522687078      -32.8903263765      -26.0047041586  W2        209             0.0000000000
       628       210  TIP3      OH2           -26.4205087078      -18.7756863765      -28.0761441586  W2        210             0.0000000000
       629       210  TIP3      H1            -25.5544887078      -18.4089463765      -28.2543241586  W2        210             0.0000000000
       630       210  TIP3      H2            -26.6672287078      -19.2148863765      -28.8900641586  W2        210             0.0000000000
       631       211  TIP3      OH2           -19.7115487078      -19.2126563765      -25.3970341586  W2        211             0.0000000000
       632       211  TIP3      H1            -19.9058387078      -19.9604463765      -25.9620741586  W2        211             0.0000000000
       633       211  TIP3      H2            -19.7505387078      -18.4546463765      -25.9802441586  W2        211             0.0000000000
       634       212  TIP3      OH2           -34.0643487078      -35.2170163765      -13.6572641586  W2        212             0.0000000000
       635       212  TIP3      H1            -34.4305287078      -35.9827563765      -13.2147941586  W2        212             0.0000000000
       636       212  TIP3      H2            -33.1514987078      -35.1879963765      -13.3707541586  W2        212             0.0000000000
       637       213  TIP3      OH2           -32.0912687078      -35.8665763765      -12.1215541586  W2        213             0.0000000000
       638       213  TIP3      H1            -31.1929087078      -36.1405563765      -12.3062141586  W2        213             0.0000000000
       639       213  TIP3      H2            -32.4779587078      -36.6089763765      -11.6572941586  W2        213             0.0000000000
       640       214  TIP3      OH2           -33.4667387078      -19.0650963765      -29.4485541586  W2        214             0.0000000000
       641       214  TIP3      H1            -33.7342787078      -18.7788063765      -28.5752441586  W2        214             0.0000000000
       642       214  TIP3      H2            -32.6954787078      -19.6111763765      -29.2963041586  W2        214             0.0000000000
       643       215  TIP3      OH2           -23.6700387078      -36.5340463765      -11.9392741586  W2        215             0.0000000000
       644       215  TIP3      H1            -23.5933187078      -36.9599763765      -11.0855041586  W2        215             0.0000000000
       645       215  TIP3      H2            -22.7763787078      -36.5205763765      -12.2819241586  W2        215             0.0000000000
       646       216  TIP3      OH2           -20.4939287078      -20.4614163765      -13.2468541586  W2        216             0.0000000000
       647       216  TIP3      H1            -21.2757387078      -20.6476163765      -13.7667941586  W2        216             0.0000000000
       648       216  TIP3      H2            -20.5659387078      -19.5319863765      -13.0296041586  W2        216             0.0000000000
       649       217  TIP3      OH2            -6.0878887078      -26.5749763765      -23.2161341586  W2        217             0.0000000000
       650       217  TIP3      H1             -5.9987787078      -25.6311563765      -23.3484241586  W2        217             0.0000000000
       651       217  TIP3      H2             -6.7261287078      -26.8503363765      -23.8741941586  W2        217             0.0000000000
       652       218  TIP3      OH2            -7.1547587078      -27.3199063765      -19.7973141586  W2        218             0.0000000000
       653       218  TIP3      H1             -7.1930087078      -27.9662763765      -19.0923541586  W2        218             0.0000000000
       654       218  TIP3      H2             -7.4771087078      -27.7864663765      -20.5684441586  W2        218             0.0000000000
       655       219  TIP3      OH2           -14.7862587078      -27.7056963765      -18.2043241586  W2        219             0.0000000000
       656       219  TIP3      H1            -14.7450487078      -28.3313663765      -17.4810841586  W2        219             0.0000000000
       657       219  TIP3      H2            -14.0834887078      -27.0818363765      -18.0222841586  W2        219             0.0000000000
       658       220  TIP3      OH2            -3.4487387078      -24.3808663765      -21.4958041586  W2        220             0.0000000000
       659       220  TIP3      H1             -3.8894687078      -25.1012663765      -21.0452441586  W2        220             0.0000000000
       660       220  TIP3      H2             -3.4617687078      -23.6601463765      -20.8660341586  W2        220             0.0000000000
       661       221  TIP3      OH2           -13.8629487078      -23.2558063765      -19.6694141586  W2        221             0.0000000000
       662       221  TIP3      H1            -14.2324287078      -24.0577563765      -20.0389841586  W2        221             0.0000000000
       663       221  TIP3      H2            -12.9218387078      -23.4243163765      -19.6230741586  W2        221             0.0000000000
       664       222  TIP3      OH2           -17.2528987078      -29.5955463765      -24.2765341586  W2        222             0.0000000000
       665       222  TIP3      H1            -17.7005587078      -28.7496763765      -24.2948841586  W2        222             0.0000000000
       666       222  TIP3      H2            -17.8137787078      -30.1751263765      -24.7920241586  W2        222             0.0000000000
       667       223  TIP3      OH2           -16.5422887078      -27.4335863765      -22.1507341586  W2        223             0.0000000000
       668       223  TIP3      H1            -16.3289387078      -28.2034263765      -21.6234341586  W2        223             0.0000000000
       669       223  TIP3      H2            -15.8045287078      -27.3439163765      -22.7539741586  W2        223             0.0000000000
       670       224  TIP3      OH2            -6.3371887078      -19.2766963765      -21.2837641586  W2        224             0.0000000000
       671       224  TIP3      H1             -5.7175487078      -19.9532263765      -21.5568441586  W2        224             0.0000000000
       672       224  TIP3      H2             -6.5454487078      -19.4946163765      -20.3752741586  W2        224             0.0000000000
       673       225  TIP3      OH2            -8.7653187078      -24.8877663765      -19.3912141586  W2        225             0.0000000000
       674       225  TIP3      H1             -8.4615287078      -25.5736263765      -19.9858041586  W2        225             0.0000000000
       675       225  TIP3      H2             -8.0439187078      -24.7688963765      -18.7734141586  W2        225             0.0000000000
       676       226  TIP3      OH2            -0.1023387078      -33.2862363765      -18.5305941586  W2        226             0.0000000000
       677       226  TIP3      H1             -0.0531187078      -32.6761163765      -17.7946841586  W2        226             0.0000000000
       678       226  TIP3      H2              0.3231712922      -32.8251463765      -19.2534841586  W2        226             0.0000000000
       679       227  TIP3      OH2            -5.6246187078      -30.4935263765      -19.0637341586  W2        227             0.0000000000
       680       227  TIP3      H1             -5.4820287078      -31.4398263765      -19.0435741586  W2        227             0.0000000000
       681       227  TIP3      H2             -5.7307187078      -30.2865463765      -19.9922441586  W2        227             0.0000000000
       682       228  TIP3      OH2           -12.4697887078      -32.3918863765      -21.7912541586  W2        228             0.0000000000
       683       228  TIP3      H1            -12.4266787078      -31.5320363765      -22.2096241586  W2        228             0.0000000000
       684       228  TIP3      H2            -12.9273787078      -32.9444163765      -22.4249341586  W2        228             0.0000000000
       685       229  TIP3      OH2            -4.7475187078      -32.2613263765      -23.3904241586  W2        229             0.0000000000
       686       229  TIP3      H1             -4.1010887078      -32.5900063765      -22.7656641586  W2        229             0.0000000000
       687       229  TIP3      H2             -4.2375787078      -31.7434263765      -24.0132841586  W2        229             0.0000000000
       688       230  TIP3      OH2           -15.8496387078      -29.9953063765      -21.0291141586  W2        230             0.0000000000
       689       230  TIP3      H1            -15.1959787078      -30.5451363765      -20.5971041586  W2        230             0.0000000000
       690       230  TIP3      H2            -15.8257087078      -30.2694063765      -21.9459141586  W2        230             0.0000000000
       691       231  TIP3      OH2           -10.6931887078      -28.4451763765      -21.8139641586  W2        231             0.0000000000
       692       231  TIP3      H1            -10.0770887078      -28.9716363765      -21.3045641586  W2        231             0.0000000000
       693       231  TIP3      H2            -11.2793087078      -29.0853063765      -22.2176041586  W2        231             0.0000000000
       694       232  TIP3      OH2             0.2891212922      -31.8083163765      -16.2946141586  W2        232             0.0000000000
       695       232  TIP3      H1             -0.3994187078      -31.1502463765      -16.3899541586  W2        232             0.0000000000
       696       232  TIP3      H2              0.3045812922      -32.0055263765      -15.3580741586  W2        232             0.0000000000
       697       233  TIP3      OH2           -13.6595987078      -33.4740463765      -17.7171741586  W2        233             0.0000000000
       698       233  TIP3      H1            -13.8784287078      -32.9439863765      -18.4835741586  W2        233             0.0000000000
       699       233  TIP3      H2            -14.3275087078      -33.2474963765      -17.0700341586  W2        233             0.0000000000
       700       234  TIP3      OH2            -6.2906187078      -23.9739363765      -24.1732641586  W2        234             0.0000000000
       701       234  TIP3      H1             -6.5861087078      -24.2967063765      -25.0245741586  W2        234             0.0000000000
       702       234  TIP3      H2             -6.6148387078      -23.0742663765      -24.1320041586  W2        234             0.0000000000
       703       235  TIP3      OH2           -11.0904587078      -25.7984763765      -17.4298041586  W2        235             0.0000000000
       704       235  TIP3      H1            -11.8305487078      -25.2003263765      -17.3262841586  W2        235             0.0000000000
       705       235  TIP3      H2            -10.3765087078      -25.2445163765      -17.7454441586  W2        235             0.0000000000
       706       236  TIP3      OH2            -2.9836787078      -32.9703963765      -21.4098341586  W2        236             0.0000000000
       707       236  TIP3      H1             -3.1988787078      -33.7360563765      -20.8772341586  W2        236             0.0000000000
       708       236  TIP3      H2             -2.3279387078      -32.4979363765      -20.8969841586  W2        236             0.0000000000
       709       237  TIP3      OH2           -14.0658687078      -31.5818663765      -19.7649541586  W2        237             0.0000000000
       710       237  TIP3      H1            -13.4522387078      -30.9491063765      -19.3917141586  W2        237             0.0000000000
       711       237  TIP3      H2            -13.5537987078      -32.0543663765      -20.4212641586  W2        237             0.0000000000
       712       238  TIP3      OH2           -12.6830287078      -23.8341763765      -16.6426541586  W2        238             0.0000000000
       713       238  TIP3      H1            -12.6882687078      -22.9548263765      -17.0207241586  W2        238             0.0000000000
       714       238  TIP3      H2            -13.5366187078      -23.9177663765      -16.2176641586  W2        238             0.0000000000
       715       239  TIP3      OH2           -16.5619387078      -24.1633863765      -25.8607241586  W2        239             0.0000000000
       716       239  TIP3      H1            -16.8338487078      -23.9342863765      -26.7494341586  W2        239             0.0000000000
       717       239  TIP3      H2            -16.5163687078      -23.3255063765      -25.4001941586  W2        239             0.0000000000
       718       240  TIP3      OH2            -2.9369687078      -22.5417963765      -19.1478741586  W2        240             0.0000000000
       719       240  TIP3      H1             -3.8785987078      -22.4834063765      -18.9861841586  W2        240             0.0000000000
       720       240  TIP3      H2             -2.6603587078      -21.6357463765      -19.2849041586  W2        240             0.0000000000
       721       241  TIP3      OH2            -2.6362687078      -34.2552663765      -17.7304841586  W2        241             0.0000000000
       722       241  TIP3      H1             -3.3723487078      -33.6445563765      -17.7683541586  W2        241             0.0000000000
       723       241  TIP3      H2             -1.9528687078      -33.8403663765      -18.2568441586  W2        241             0.0000000000
       724       242  TIP3      OH2            -9.6331287078      -36.1685363765      -20.2646841586  W2        242             0.0000000000
       725       242  TIP3      H1             -9.7507087078      -37.1169363765      -20.3188541586  W2        242             0.0000000000
       726       242  TIP3      H2            -10.4881187078      -35.8359263765      -19.9915741586  W2        242             0.0000000000
       727       243  TIP3      OH2            -4.6848487078      -20.7604463765      -22.5227141586  W2        243             0.0000000000
       728       243  TIP3      H1             -4.2596187078      -21.4676563765      -23.0077541586  W2        243             0.0000000000
       729       243  TIP3      H2             -4.3678487078      -19.9591763765      -22.9394941586  W2        243             0.0000000000
       730       244  TIP3      OH2            -3.5251987078      -22.8595963765      -24.0140541586  W2        244             0.0000000000
       731       244  TIP3      H1             -3.7827187078      -23.5495863765      -24.6254641586  W2        244             0.0000000000
       732       244  TIP3      H2             -3.4541187078      -23.3024763765      -23.1684641586  W2        244             0.0000000000
       733       245  TIP3      OH2            -1.8391787078      -24.2929263765      -15.5367041586  W2        245             0.0000000000
       734       245  TIP3      H1             -1.6995487078      -24.8846763765      -16.2760041586  W2        245             0.0000000000
       735       245  TIP3      H2             -1.6718987078      -23.4203363765      -15.8928241586  W2        245             0.0000000000
       736       246  TIP3      OH2            -7.3666387078      -27.3309763765      -25.7641041586  W2        246             0.0000000000
       737       246  TIP3      H1             -8.0780887078      -26.7960063765      -26.1160541586  W2        246             0.0000000000
       738       246  TIP3      H2             -6.6756787078      -27.2757663765      -26.4242141586  W2        246             0.0000000000
       739       247  TIP3      OH2            -7.3127187078      -28.8735463765      -28.7256041586  W2        247             0.0000000000
       740       247  TIP3      H1             -6.6117287078      -28.8508563765      -28.0742041586  W2        247             0.0000000000
       741       247  TIP3      H2             -7.0104287078      -29.5015763765      -29.3816741586  W2        247             0.0000000000
       742       248  TIP3      OH2             0.0027512922      -27.9531263765      -17.4706641586  W2        248             0.0000000000
       743       248  TIP3      H1             -0.6498387078      -27.2585663765      -17.3815741586  W2        248             0.0000000000
       744       248  TIP3      H2              0.4677812922      -27.7430363765      -18.2805041586  W2        248             0.0000000000
       745       249  TIP3      OH2            -3.9608687078      -27.1216463765      -24.8125141586  W2        249             0.0000000000
       746       249  TIP3      H1             -4.6927687078      -26.8932763765      -24.2394541586  W2        249             0.0000000000
       747       249  TIP3      H2             -3.5136487078      -27.8353763765      -24.3577641586  W2        249             0.0000000000
       748       250  TIP3      OH2            -4.0635187078      -28.9473863765      -15.7448141586  W2        250             0.0000000000
       749       250  TIP3      H1             -3.9836087078      -28.1839463765      -15.1729641586  W2        250             0.0000000000
       750       250  TIP3      H2             -4.6647487078      -28.6681463765      -16.4353041586  W2        250             0.0000000000
       751       251  TIP3      OH2           -12.3154987078      -26.4910263765      -22.9300141586  W2        251             0.0000000000
       752       251  TIP3      H1            -12.6459787078      -26.8616863765      -23.7483141586  W2        251             0.0000000000
       753       251  TIP3      H2            -11.7270887078      -27.1616263765      -22.5831841586  W2        251             0.0000000000
       754       252  TIP3      OH2           -10.9487487078      -23.0629663765      -20.2487941586  W2        252             0.0000000000
       755       252  TIP3      H1            -11.0436187078      -23.6416563765      -21.0053341586  W2        252             0.0000000000
       756       252  TIP3      H2            -10.2193887078      -23.4343963765      -19.7525141586  W2        252             0.0000000000
       757       253  TIP3      OH2           -11.9489487078      -27.7224663765      -19.2965141586  W2        253             0.0000000000
       758       253  TIP3      H1            -11.3836987078      -27.6010463765      -20.0593941586  W2        253             0.0000000000
       759       253  TIP3      H2            -11.6300587078      -27.0849663765      -18.6576641586  W2        253             0.0000000000
       760       254  TIP3      OH2            -5.6397287078      -22.2192763765      -18.5624641586  W2        254             0.0000000000
       761       254  TIP3      H1             -5.8800687078      -21.5569663765      -17.9145441586  W2        254             0.0000000000
       762       254  TIP3      H2             -5.8379087078      -23.0537563765      -18.1375041586  W2        254             0.0000000000
       763       255  TIP3      OH2           -11.0688787078      -23.3231963765      -14.5793241586  W2        255             0.0000000000
       764       255  TIP3      H1            -11.3801287078      -22.5408763765      -14.1240041586  W2        255             0.0000000000
       765       255  TIP3      H2            -11.7188587078      -23.4762863765      -15.2651241586  W2        255             0.0000000000
       766       256  TIP3      OH2            -5.0899187078      -27.9593563765      -27.1273941586  W2        256             0.0000000000
       767       256  TIP3      H1             -4.5103687078      -27.8093263765      -26.3805041586  W2        256             0.0000000000
       768       256  TIP3      H2             -4.6759187078      -27.4886163765      -27.8507541586  W2        256             0.0000000000
       769       257  TIP3      OH2           -14.1488887078      -27.1250863765      -15.3507541586  W2        257             0.0000000000
       770       257  TIP3      H1            -14.0785687078      -26.4744063765      -14.6522541586  W2        257             0.0000000000
       771       257  TIP3      H2            -15.0396687078      -27.0223363765      -15.6856641586  W2        257             0.0000000000
       772       258  TIP3      OH2            -7.3634287078      -21.2225063765      -23.6920841586  W2        258             0.0000000000
       773       258  TIP3      H1             -6.8896687078      -20.9268763765      -22.9146641586  W2        258             0.0000000000
       774       258  TIP3      H2             -7.9264987078      -20.4843463765      -23.9251241586  W2        258             0.0000000000
       775       259  TIP3      OH2           -12.8292887078      -21.2516963765      -13.8159441586  W2        259             0.0000000000
       776       259  TIP3      H1            -12.8217587078      -21.3877263765      -14.7633941586  W2        259             0.0000000000
       777       259  TIP3      H2            -13.7452487078      -21.3688863765      -13.5639441586  W2        259             0.0000000000
       778       260  TIP3      OH2            -1.3910787078      -36.2093163765      -27.3144241586  W2        260             0.0000000000
       779       260  TIP3      H1             -2.2910087078      -36.0704163765      -27.0193641586  W2        260             0.0000000000
       780       260  TIP3      H2             -1.1392387078      -35.3778563765      -27.7162541586  W2        260             0.0000000000
       781       261  TIP3      OH2           -13.3252287078      -27.4215963765      -25.3407341586  W2        261             0.0000000000
       782       261  TIP3      H1            -13.6170987078      -26.6534263765      -25.8316041586  W2        261             0.0000000000
       783       261  TIP3      H2            -13.9997087078      -28.0809763765      -25.5035941586  W2        261             0.0000000000
       784       262  TIP3      OH2            -0.2019387078      -21.8430763765      -28.9380341586  W2        262             0.0000000000
       785       262  TIP3      H1             -0.1285887078      -20.9040563765      -28.7675041586  W2        262             0.0000000000
       786       262  TIP3      H2              0.7035712922      -22.1482163765      -28.9943041586  W2        262             0.0000000000
       787       263  TIP3      OH2           -17.2322187078      -25.0586763765      -16.5257541586  W2        263             0.0000000000
       788       263  TIP3      H1            -17.7333787078      -25.0867363765      -17.3407841586  W2        263             0.0000000000
       789       263  TIP3      H2            -17.2268487078      -25.9643563765      -16.2160241586  W2        263             0.0000000000
       790       264  TIP3      OH2           -17.4819487078      -22.2782963765      -19.6417341586  W2        264             0.0000000000
       791       264  TIP3      H1            -16.5358887078      -22.4225963765      -19.6607841586  W2        264             0.0000000000
       792       264  TIP3      H2            -17.5943187078      -21.4940163765      -19.1046141586  W2        264             0.0000000000
       793       265  TIP3      OH2             0.7159012922      -21.6123263765      -13.9593641586  W2        265             0.0000000000
       794       265  TIP3      H1              0.6665812922      -22.5675163765      -13.9966041586  W2        265             0.0000000000
       795       265  TIP3      H2             -0.1108687078      -21.3447963765      -13.5579841586  W2        265             0.0000000000
       796       266  TIP3      OH2            -8.3056987078      -22.0384063765      -15.0832241586  W2        266             0.0000000000
       797       266  TIP3      H1             -8.2182387078      -21.2119463765      -14.6083141586  W2        266             0.0000000000
       798       266  TIP3      H2             -9.1691887078      -22.3680263765      -14.8342941586  W2        266             0.0000000000
       799       267  TIP3      OH2            -7.8911187078      -18.2660363765      -25.2771641586  W2        267             0.0000000000
       800       267  TIP3      H1             -7.9665187078      -18.3873163765      -26.2236441586  W2        267             0.0000000000
       801       267  TIP3      H2             -7.8582487078      -17.3167663765      -25.1587041586  W2        267             0.0000000000
       802       268  TIP3      OH2           -14.2377387078      -19.4773363765      -23.4962641586  W2        268             0.0000000000
       803       268  TIP3      H1            -14.0856987078      -19.8252963765      -22.6176141586  W2        268             0.0000000000
       804       268  TIP3      H2            -15.0886987078      -19.8336063765      -23.7515441586  W2        268             0.0000000000
       805       269  TIP3      OH2            -4.7895187078      -19.1120163765      -28.2749241586  W2        269             0.0000000000
       806       269  TIP3      H1             -4.4146787078      -19.8564063765      -28.7456641586  W2        269             0.0000000000
       807       269  TIP3      H2             -4.7851487078      -19.3819563765      -27.3565941586  W2        269             0.0000000000
       808       270  TIP3      OH2            -5.1207087078      -19.1863063765      -25.5257041586  W2        270             0.0000000000
       809       270  TIP3      H1             -6.0557287078      -19.0861163765      -25.3470041586  W2        270             0.0000000000
       810       270  TIP3      H2             -4.8405187078      -19.8957063765      -24.9473841586  W2        270             0.0000000000
       811       271  TIP3      OH2            -2.1321187078      -30.1190763765      -13.4791441586  W2        271             0.0000000000
       812       271  TIP3      H1             -2.5394387078      -29.6385163765      -14.1998141586  W2        271             0.0000000000
       813       271  TIP3      H2             -2.0915487078      -31.0244763765      -13.7870641586  W2        271             0.0000000000
       814       272  TIP3      OH2           -14.9831687078      -23.7351363765      -15.4824741586  W2        272             0.0000000000
       815       272  TIP3      H1            -14.7670387078      -24.0965763765      -14.6228941586  W2        272             0.0000000000
       816       272  TIP3      H2            -15.8386987078      -24.1097563765      -15.6921241586  W2        272             0.0000000000
       817       273  TIP3      OH2           -12.3643687078      -35.2650863765      -19.4870541586  W2        273             0.0000000000
       818       273  TIP3      H1            -13.2259987078      -35.3522663765      -19.8947641586  W2        273             0.0000000000
       819       273  TIP3      H2            -12.3867987078      -34.4090763765      -19.0592941586  W2        273             0.0000000000
       820       274  TIP3      OH2            -7.7015887078      -35.5430463765      -16.1123541586  W2        274             0.0000000000
       821       274  TIP3      H1             -7.2812787078      -35.9583363765      -15.3592941586  W2        274             0.0000000000
       822       274  TIP3      H2             -8.6346287078      -35.7217163765      -15.9951541586  W2        274             0.0000000000
       823       275  TIP3      OH2            -4.3750987078      -31.7875263765      -15.2589041586  W2        275             0.0000000000
       824       275  TIP3      H1             -4.8891487078      -31.9133063765      -14.4613041586  W2        275             0.0000000000
       825       275  TIP3      H2             -4.5306287078      -30.8752163765      -15.5032841586  W2        275             0.0000000000
       826       276  TIP3      OH2            -3.6126087078      -26.9265263765      -29.4976041586  W2        276             0.0000000000
       827       276  TIP3      H1             -3.5705287078      -27.1491363765      -30.4276041586  W2        276             0.0000000000
       828       276  TIP3      H2             -2.7633987078      -26.5278163765      -29.3076141586  W2        276             0.0000000000
       829       277  TIP3      OH2            -8.0398587078      -33.0507063765      -28.8272741586  W2        277             0.0000000000
       830       277  TIP3      H1             -8.2933787078      -33.0315463765      -27.9044641586  W2        277             0.0000000000
       831       277  TIP3      H2             -8.2966487078      -33.9221663765      -29.1286541586  W2        277             0.0000000000
       832       278  TIP3      OH2           -12.2733587078      -30.2996363765      -18.3920341586  W2        278             0.0000000000
       833       278  TIP3      H1            -12.9151487078      -30.3399063765      -17.6830241586  W2        278             0.0000000000
       834       278  TIP3      H2            -12.2361587078      -29.3731663765      -18.6297341586  W2        278             0.0000000000
       835       279  TIP3      OH2           -12.2764487078      -30.0786263765      -23.4800341586  W2        279             0.0000000000
       836       279  TIP3      H1            -13.1691587078      -30.4190163765      -23.5386541586  W2        279             0.0000000000
       837       279  TIP3      H2            -11.8257887078      -30.4555363765      -24.2357141586  W2        279             0.0000000000
       838       280  TIP3      OH2            -6.7408987078      -29.6625963765      -24.6629541586  W2        280             0.0000000000
       839       280  TIP3      H1             -7.1498687078      -28.8477363765      -24.9544741586  W2        280             0.0000000000
       840       280  TIP3      H2             -6.0202787078      -29.8025863765      -25.2772441586  W2        280             0.0000000000
       841       281  TIP3      OH2            -7.6387387078      -29.4869563765      -13.1748841586  W2        281             0.0000000000
       842       281  TIP3      H1             -8.2013587078      -30.1917963765      -12.8541041586  W2        281             0.0000000000
       843       281  TIP3      H2             -6.8123987078      -29.6077663765      -12.7071241586  W2        281             0.0000000000
       844       282  TIP3      OH2            -5.7361287078      -30.2165563765      -21.8489841586  W2        282             0.0000000000
       845       282  TIP3      H1             -5.9316787078      -29.6108763765      -22.5639241586  W2        282             0.0000000000
       846       282  TIP3      H2             -5.5548687078      -31.0500363765      -22.2833541586  W2        282             0.0000000000
       847       283  TIP3      OH2           -14.5233087078      -29.9792863765      -16.5248341586  W2        283             0.0000000000
       848       283  TIP3      H1            -14.5613687078      -29.5791263765      -15.6561241586  W2        283             0.0000000000
       849       283  TIP3      H2            -15.0141987078      -30.7960463765      -16.4345441586  W2        283             0.0000000000
       850       284  TIP3      OH2           -11.1575687078      -32.6050563765      -29.7262341586  W2        284             0.0000000000
       851       284  TIP3      H1            -11.5884987078      -33.0500463765      -28.9964941586  W2        284             0.0000000000
       852       284  TIP3      H2            -11.8756987078      -32.2334263765      -30.2384841586  W2        284             0.0000000000
       853       285  TIP3      OH2           -17.9152287078      -32.8631063765      -22.6743641586  W2        285             0.0000000000
       854       285  TIP3      H1            -17.2844587078      -32.8918963765      -21.9549741586  W2        285             0.0000000000
       855       285  TIP3      H2            -17.4657987078      -33.2882363765      -23.4047741586  W2        285             0.0000000000
       856       286  TIP3      OH2           -16.6410187078      -32.1169063765      -27.2503241586  W2        286             0.0000000000
       857       286  TIP3      H1            -16.1668487078      -31.5259163765      -27.8352341586  W2        286             0.0000000000
       858       286  TIP3      H2            -17.3583787078      -31.5866163765      -26.9033141586  W2        286             0.0000000000
       859       287  TIP3      OH2            -6.4722087078      -28.5784263765      -17.1777441586  W2        287             0.0000000000
       860       287  TIP3      H1             -6.1487287078      -29.2094563765      -17.8206941586  W2        287             0.0000000000
       861       287  TIP3      H2             -6.9122787078      -29.1132063765      -16.5170041586  W2        287             0.0000000000
       862       288  TIP3      OH2            -9.6949187078      -32.6508763765      -22.3936241586  W2        288             0.0000000000
       863       288  TIP3      H1            -10.6058087078      -32.5941963765      -22.1050241586  W2        288             0.0000000000
       864       288  TIP3      H2             -9.1896287078      -32.7113263765      -21.5829041586  W2        288             0.0000000000
       865       289  TIP3      OH2           -14.8665787078      -31.0222463765      -23.5668641586  W2        289             0.0000000000
       866       289  TIP3      H1            -15.7557787078      -30.9226963765      -23.9069041586  W2        289             0.0000000000
       867       289  TIP3      H2            -14.5700887078      -31.8639463765      -23.9130741586  W2        289             0.0000000000
       868       290  TIP3      OH2           -11.2133987078      -31.0219863765      -25.9104041586  W2        290             0.0000000000
       869       290  TIP3      H1            -10.2818487078      -30.8929863765      -25.7320941586  W2        290             0.0000000000
       870       290  TIP3      H2            -11.4283687078      -30.3525563765      -26.5599341586  W2        290             0.0000000000
       871       291  TIP3      OH2            -5.2897287078      -33.4162463765      -19.1294441586  W2        291             0.0000000000
       872       291  TIP3      H1             -5.9665687078      -33.2849363765      -18.4654741586  W2        291             0.0000000000
       873       291  TIP3      H2             -5.7752387078      -33.5712963765      -19.9396741586  W2        291             0.0000000000
       874       292  TIP3      OH2           -12.5393787078      -29.8277663765      -28.3437941586  W2        292             0.0000000000
       875       292  TIP3      H1            -13.0818687078      -30.2073863765      -29.0350341586  W2        292             0.0000000000
       876       292  TIP3      H2            -11.7058887078      -29.6332963765      -28.7723841586  W2        292             0.0000000000
       877       293  TIP3      OH2            -2.0022187078      -17.7447063765      -12.8526841586  W2        293             0.0000000000
       878       293  TIP3      H1             -1.8023487078      -17.3205163765      -13.6871541586  W2        293             0.0000000000
       879       293  TIP3      H2             -1.3468487078      -17.4008863765      -12.2456441586  W2        293             0.0000000000
       880       294  TIP3      OH2           -14.4042387078      -25.2705763765      -13.2446341586  W2        294             0.0000000000
       881       294  TIP3      H1            -13.6719987078      -25.0159863765      -12.6831841586  W2        294             0.0000000000
       882       294  TIP3      H2            -15.1843687078      -25.0660363765      -12.7290941586  W2        294             0.0000000000
       883       295  TIP3      OH2            -8.3749487078      -29.8635763765      -20.5066641586  W2        295             0.0000000000
       884       295  TIP3      H1             -7.8106087078      -30.4099163765      -21.0537041586  W2        295             0.0000000000
       885       295  TIP3      H2             -8.5226087078      -30.3853863765      -19.7179041586  W2        295             0.0000000000
       886       296  TIP3      OH2           -13.3729787078      -33.7269663765      -24.0881841586  W2        296             0.0000000000
       887       296  TIP3      H1            -13.6900287078      -34.6294363765      -24.1236441586  W2        296             0.0000000000
       888       296  TIP3      H2            -12.5915687078      -33.7252263765      -24.6410241586  W2        296             0.0000000000
       889       297  TIP3      OH2            -9.7483587078      -31.4749663765      -18.0926241586  W2        297             0.0000000000
       890       297  TIP3      H1            -10.5838287078      -31.0210163765      -17.9823841586  W2        297             0.0000000000
       891       297  TIP3      H2             -9.2242987078      -31.1991163765      -17.3406341586  W2        297             0.0000000000
       892       298  TIP3      OH2            -9.2040987078      -25.2621963765      -26.4079841586  W2        298             0.0000000000
       893       298  TIP3      H1             -9.9489987078      -25.7696663765      -26.7301941586  W2        298             0.0000000000
       894       298  TIP3      H2             -9.3383787078      -25.2133963765      -25.4615041586  W2        298             0.0000000000
       895       299  TIP3      OH2            -2.0542087078      -26.1293763765      -17.6212241586  W2        299             0.0000000000
       896       299  TIP3      H1             -1.4123287078      -25.6727463765      -18.1650041586  W2        299             0.0000000000
       897       299  TIP3      H2             -2.8845187078      -26.0161363765      -18.0838141586  W2        299             0.0000000000
       898       300  TIP3      OH2            -5.3064187078      -32.4482063765      -28.2087241586  W2        300             0.0000000000
       899       300  TIP3      H1             -6.2449987078      -32.3366463765      -28.3598441586  W2        300             0.0000000000
       900       300  TIP3      H2             -5.0092087078      -31.5915163765      -27.9021541586  W2        300             0.0000000000
       901       301  TIP3      OH2            -7.6848887078      -25.0778663765      -15.1710741586  W2        301             0.0000000000
       902       301  TIP3      H1             -8.0302787078      -25.4596263765      -14.3641141586  W2        301             0.0000000000
       903       301  TIP3      H2             -7.8848787078      -24.1445063765      -15.0997841586  W2        301             0.0000000000
       904       302  TIP3      OH2            -4.5880687078      -30.5809363765      -26.5479841586  W2        302             0.0000000000
       905       302  TIP3      H1             -3.6961687078      -30.7184363765      -26.2288641586  W2        302             0.0000000000
       906       302  TIP3      H2             -4.5317087078      -29.7903263765      -27.0846341586  W2        302             0.0000000000
       907       303  TIP3      OH2           -14.0792687078      -25.9671963765      -20.6381941586  W2        303             0.0000000000
       908       303  TIP3      H1            -13.3345487078      -25.9696263765      -21.2395441586  W2        303             0.0000000000
       909       303  TIP3      H2            -14.0016087078      -26.7908163765      -20.1566841586  W2        303             0.0000000000
       910       304  TIP3      OH2            -7.0786887078      -23.8037663765      -27.3825241586  W2        304             0.0000000000
       911       304  TIP3      H1             -7.3738487078      -22.9769763765      -27.0010441586  W2        304             0.0000000000
       912       304  TIP3      H2             -7.7816887078      -24.4230763765      -27.1863841586  W2        304             0.0000000000
       913       305  TIP3      OH2           -17.0712987078      -27.5065063765      -15.3233441586  W2        305             0.0000000000
       914       305  TIP3      H1            -16.8484387078      -27.9245463765      -14.4915941586  W2        305             0.0000000000
       915       305  TIP3      H2            -17.6732887078      -28.1190063765      -15.7460641586  W2        305             0.0000000000
       916       306  TIP3      OH2           -10.0548087078      -27.9895163765      -13.1103741586  W2        306             0.0000000000
       917       306  TIP3      H1            -10.3507287078      -28.1552163765      -14.0054641586  W2        306             0.0000000000
       918       306  TIP3      H2             -9.1232887078      -28.2094863765      -13.1209841586  W2        306             0.0000000000
       919       307  TIP3      OH2            -5.4345287078      -22.6163163765      -15.2205741586  W2        307             0.0000000000
       920       307  TIP3      H1             -6.3350987078      -22.4330563765      -15.4881841586  W2        307             0.0000000000
       921       307  TIP3      H2             -5.4004187078      -22.3573863765      -14.2996941586  W2        307             0.0000000000
       922       308  TIP3      OH2             0.2968012922      -30.3715263765      -26.8533141586  W2        308             0.0000000000
       923       308  TIP3      H1             -0.2575687078      -30.7677263765      -27.5255641586  W2        308             0.0000000000
       924       308  TIP3      H2              0.3971612922      -29.4610063765      -27.1309841586  W2        308             0.0000000000
       925       309  TIP3      OH2             0.2600012922      -24.5713563765      -14.0161641586  W2        309             0.0000000000
       926       309  TIP3      H1             -0.5911487078      -24.3329763765      -14.3835241586  W2        309             0.0000000000
       927       309  TIP3      H2              0.8503412922      -24.5880363765      -14.7694541586  W2        309             0.0000000000
       928       310  TIP3      OH2            -1.4080287078      -21.5854863765      -26.3881041586  W2        310             0.0000000000
       929       310  TIP3      H1             -1.7809187078      -22.4111063765      -26.0790441586  W2        310             0.0000000000
       930       310  TIP3      H2             -1.1306787078      -21.7685463765      -27.2857641586  W2        310             0.0000000000
       931       311  TIP3      OH2            -4.2476387078      -26.7775363765      -19.3669141586  W2        311             0.0000000000
       932       311  TIP3      H1             -5.1759487078      -27.0093463765      -19.3939841586  W2        311             0.0000000000
       933       311  TIP3      H2             -3.7965287078      -27.5545563765      -19.6970341586  W2        311             0.0000000000
       934       312  TIP3      OH2           -11.7043287078      -22.4493763765      -23.2340441586  W2        312             0.0000000000
       935       312  TIP3      H1            -11.1771087078      -21.6759363765      -23.4341641586  W2        312             0.0000000000
       936       312  TIP3      H2            -12.5844787078      -22.2244563765      -23.5356441586  W2        312             0.0000000000
       937       313  TIP3      OH2           -15.9495587078      -27.5869663765      -28.6468041586  W2        313             0.0000000000
       938       313  TIP3      H1            -15.3335687078      -26.9602463765      -28.2673241586  W2        313             0.0000000000
       939       313  TIP3      H2            -16.8112987078      -27.2709863765      -28.3751541586  W2        313             0.0000000000
       940       314  TIP3      OH2           -10.2770987078      -24.7863863765      -23.6576141586  W2        314             0.0000000000
       941       314  TIP3      H1            -10.5180987078      -23.8609463765      -23.6160841586  W2        314             0.0000000000
       942       314  TIP3      H2            -11.0177387078      -25.2452563765      -23.2612241586  W2        314             0.0000000000
       943       315  TIP3      OH2            -9.7624387078      -20.6370263765      -17.3425041586  W2        315             0.0000000000
       944       315  TIP3      H1             -9.3999687078      -19.7824663765      -17.5760641586  W2        315             0.0000000000
       945       315  TIP3      H2             -9.2309187078      -20.9288663765      -16.6018741586  W2        315             0.0000000000
       946       316  TIP3      OH2           -11.5940187078      -19.7646263765      -24.1123941586  W2        316             0.0000000000
       947       316  TIP3      H1            -12.5439687078      -19.6588863765      -24.0610641586  W2        316             0.0000000000
       948       316  TIP3      H2            -11.2422087078      -18.9438863765      -23.7676441586  W2        316             0.0000000000
       949       317  TIP3      OH2            -6.2183587078      -24.5379563765      -17.6419441586  W2        317             0.0000000000
       950       317  TIP3      H1             -6.6442287078      -24.7657863765      -16.8155441586  W2        317             0.0000000000
       951       317  TIP3      H2             -5.6377787078      -25.2767763765      -17.8244141586  W2        317             0.0000000000
       952       318  TIP3      OH2            -4.0154687078      -23.6089063765      -28.5680441586  W2        318             0.0000000000
       953       318  TIP3      H1             -3.6621587078      -23.9889263765      -27.7636941586  W2        318             0.0000000000
       954       318  TIP3      H2             -4.9641187078      -23.7024263765      -28.4811141586  W2        318             0.0000000000
       955       319  TIP3      OH2            -3.5599387078      -19.9860063765      -15.1724641586  W2        319             0.0000000000
       956       319  TIP3      H1             -4.1616187078      -20.5417163765      -15.6678341586  W2        319             0.0000000000
       957       319  TIP3      H2             -3.2785687078      -19.3190263765      -15.7987241586  W2        319             0.0000000000
       958       320  TIP3      OH2             0.4879712922      -19.1296563765      -28.3670241586  W2        320             0.0000000000
       959       320  TIP3      H1              1.2317612922      -18.5436063765      -28.5068641586  W2        320             0.0000000000
       960       320  TIP3      H2             -0.2062187078      -18.5610763765      -28.0337841586  W2        320             0.0000000000
       961       321  TIP3      OH2           -15.4373487078      -32.7532363765      -15.7652041586  W2        321             0.0000000000
       962       321  TIP3      H1            -16.3301187078      -32.4146963765      -15.8328041586  W2        321             0.0000000000
       963       321  TIP3      H2            -15.5360687078      -33.6086263765      -15.3471241586  W2        321             0.0000000000
       964       322  TIP3      OH2            -3.1495387078      -24.9367063765      -26.3412541586  W2        322             0.0000000000
       965       322  TIP3      H1             -3.4267787078      -25.6647763765      -25.7851441586  W2        322             0.0000000000
       966       322  TIP3      H2             -2.2222387078      -24.8175063765      -26.1359941586  W2        322             0.0000000000
       967       323  TIP3      OH2           -15.7861487078      -20.9487963765      -17.3302641586  W2        323             0.0000000000
       968       323  TIP3      H1            -15.5691187078      -21.8805563765      -17.3612941586  W2        323             0.0000000000
       969       323  TIP3      H2            -15.5397987078      -20.6742963765      -16.4469841586  W2        323             0.0000000000
       970       324  TIP3      OH2            -9.9246887078      -22.4972963765      -30.1210441586  W2        324             0.0000000000
       971       324  TIP3      H1             -9.6857087078      -23.2454863765      -30.6681541586  W2        324             0.0000000000
       972       324  TIP3      H2            -10.1935587078      -22.8851263765      -29.2882641586  W2        324             0.0000000000
       973       325  TIP3      OH2           -10.9876287078      -22.9269163765      -27.6647841586  W2        325             0.0000000000
       974       325  TIP3      H1            -10.8408287078      -23.4469363765      -26.8746941586  W2        325             0.0000000000
       975       325  TIP3      H2            -10.9904587078      -22.0201563765      -27.3581941586  W2        325             0.0000000000
       976       326  TIP3      OH2           -14.5345187078      -25.6745863765      -27.1542441586  W2        326             0.0000000000
       977       326  TIP3      H1            -15.2205887078      -25.3223363765      -26.5872741586  W2        326             0.0000000000
       978       326  TIP3      H2            -14.0117287078      -24.9116263765      -27.4008141586  W2        326             0.0000000000
       979       327  TIP3      OH2            -6.7030087078      -33.0122063765      -16.8753441586  W2        327             0.0000000000
       980       327  TIP3      H1             -6.0042187078      -32.9383363765      -16.2253741586  W2        327             0.0000000000
       981       327  TIP3      H2             -7.0838687078      -33.8767063765      -16.7210541586  W2        327             0.0000000000
       982       328  TIP3      OH2            -5.9185187078      -33.3600363765      -25.7781141586  W2        328             0.0000000000
       983       328  TIP3      H1             -5.6986887078      -32.8884963765      -26.5815741586  W2        328             0.0000000000
       984       328  TIP3      H2             -5.3601187078      -32.9657763765      -25.1080541586  W2        328             0.0000000000
       985       329  TIP3      OH2            -8.2499087078      -21.2295563765      -26.9153641586  W2        329             0.0000000000
       986       329  TIP3      H1             -9.0662987078      -20.7325863765      -26.8629341586  W2        329             0.0000000000
       987       329  TIP3      H2             -7.7202787078      -20.7542063765      -27.5554841586  W2        329             0.0000000000
       988       330  TIP3      OH2            -8.7185287078      -31.6321563765      -24.9432741586  W2        330             0.0000000000
       989       330  TIP3      H1             -7.9062687078      -31.1278363765      -24.8971041586  W2        330             0.0000000000
       990       330  TIP3      H2             -8.9632287078      -31.7771863765      -24.0293141586  W2        330             0.0000000000
       991       331  TIP3      OH2            -8.1828887078      -30.6458863765      -15.7586141586  W2        331             0.0000000000
       992       331  TIP3      H1             -8.0638587078      -30.0723463765      -15.0015741586  W2        331             0.0000000000
       993       331  TIP3      H2             -7.5274287078      -31.3339463765      -15.6438341586  W2        331             0.0000000000
       994       332  TIP3      OH2            -7.8348587078      -34.5508563765      -24.0051641586  W2        332             0.0000000000
       995       332  TIP3      H1             -8.1815087078      -33.9337963765      -23.3607341586  W2        332             0.0000000000
       996       332  TIP3      H2             -7.1761687078      -34.0502863765      -24.4866141586  W2        332             0.0000000000
       997       333  TIP3      OH2           -10.9115987078      -20.1858363765      -26.9336741586  W2        333             0.0000000000
       998       333  TIP3      H1            -10.7507287078      -19.3860863765      -27.4344141586  W2        333             0.0000000000
       999       333  TIP3      H2            -11.1088187078      -19.8792363765      -26.0486141586  W2        333             0.0000000000
      1000       334  TIP3      OH2           -12.1771587078      -33.4879163765      -27.3179141586  W2        334             0.0000000000
      1001       334  TIP3      H1            -12.2606787078      -32.5996063765      -26.9712741586  W2        334             0.0000000000
      1002       334  TIP3      H2            -11.2871287078      -33.7532463765      -27.0862341586  W2        334             0.0000000000
      1003       335  TIP3      OH2            -1.9783087078      -32.7388563765      -14.9236441586  W2        335             0.0000000000
      1004       335  TIP3      H1             -2.8947287078      -32.4766863765      -15.0112741586  W2        335             0.0000000000
      1005       335  TIP3      H2             -1.6428087078      -32.7419563765      -15.8201141586  W2        335             0.0000000000
      1006       336  TIP3      OH2            -3.3762087078      -28.9887563765      -20.8279141586  W2        336             0.0000000000
      1007       336  TIP3      H1             -4.1737687078      -29.4037363765      -21.1564141586  W2        336             0.0000000000
      1008       336  TIP3      H2             -2.9310987078      -29.6793863765      -20.3368641586  W2        336             0.0000000000
      1009       337  TIP3      OH2           -13.9186287078      -23.0606963765      -28.2574641586  W2        337             0.0000000000
      1010       337  TIP3      H1            -13.3264787078      -22.3612163765      -27.9812241586  W2        337             0.0000000000
      1011       337  TIP3      H2            -13.4593287078      -23.4937463765      -28.9770041586  W2        337             0.0000000000
      1012       338  TIP3      OH2           -15.6027087078      -30.3963963765      -29.1415241586  W2        338             0.0000000000
      1013       338  TIP3      H1            -15.6474487078      -29.4570863765      -28.9628241586  W2        338             0.0000000000
      1014       338  TIP3      H2            -16.4903887078      -30.6319063765      -29.4113141586  W2        338             0.0000000000
      1015       339  TIP3      OH2            -2.2897487078      -19.7325063765      -19.2055641586  W2        339             0.0000000000
      1016       339  TIP3      H1             -2.4453187078      -19.0540663765      -19.8626341586  W2        339             0.0000000000
      1017       339  TIP3      H2             -1.3571087078      -19.6605763765      -19.0025041586  W2        339             0.0000000000
      1018       340  TIP3      OH2           -14.7945087078      -35.6147363765      -20.4684241586  W2        340             0.0000000000
      1019       340  TIP3      H1            -15.0235287078      -35.5554863765      -21.3959241586  W2        340             0.0000000000
      1020       340  TIP3      H2            -15.2371687078      -36.4061863765      -20.1620141586  W2        340             0.0000000000
      1021       341  TIP3      OH2           -15.8641787078      -21.6740263765      -24.3078441586  W2        341             0.0000000000
      1022       341  TIP3      H1            -16.6963187078      -21.2017563765      -24.2807041586  W2        341             0.0000000000
      1023       341  TIP3      H2            -15.3183487078      -21.1642663765      -24.9065341586  W2        341             0.0000000000
      1024       342  TIP3      OH2           -16.5758087078      -19.0616563765      -12.9780441586  W2        342             0.0000000000
      1025       342  TIP3      H1            -16.0355887078      -19.2782563765      -12.2181241586  W2        342             0.0000000000
      1026       342  TIP3      H2            -17.0570087078      -19.8670563765      -13.1677941586  W2        342             0.0000000000
      1027       343  TIP3      OH2           -11.9784687078      -20.1422163765      -11.3576241586  W2        343             0.0000000000
      1028       343  TIP3      H1            -11.2107487078      -20.6011363765      -11.0167041586  W2        343             0.0000000000
      1029       343  TIP3      H2            -11.9998487078      -20.3682363765      -12.2875041586  W2        343             0.0000000000
      1030       344  TIP3      OH2            -7.8865087078      -20.6341563765      -29.9824441586  W2        344             0.0000000000
      1031       344  TIP3      H1             -8.5304087078      -21.2652963765      -29.6610741586  W2        344             0.0000000000
      1032       344  TIP3      H2             -7.1246787078      -21.1653563765      -30.2140941586  W2        344             0.0000000000
      1033       345  TIP3      OH2            -5.4015987078      -21.7621063765      -12.6284741586  W2        345             0.0000000000
      1034       345  TIP3      H1             -5.7526487078      -22.6188063765      -12.3854341586  W2        345             0.0000000000
      1035       345  TIP3      H2             -4.6752787078      -21.6194363765      -12.0215741586  W2        345             0.0000000000
      1036       346  TIP3      OH2            -3.2822187078      -20.8171663765      -29.7486441586  W2        346             0.0000000000
      1037       346  TIP3      H1             -2.9991787078      -21.6116463765      -29.2959541586  W2        346             0.0000000000
      1038       346  TIP3      H2             -2.5424287078      -20.5840663765      -30.3095341586  W2        346             0.0000000000
      1039       347  TIP3      OH2           -16.6688587078      -25.2512463765      -12.0236141586  W2        347             0.0000000000
      1040       347  TIP3      H1            -16.5248087078      -26.1531763765      -12.3099441586  W2        347             0.0000000000
      1041       347  TIP3      H2            -17.4411187078      -24.9650363765      -12.5113841586  W2        347             0.0000000000
      1042       348  TIP3      OH2           -12.3274887078      -24.9076763765      -29.8911541586  W2        348             0.0000000000
      1043       348  TIP3      H1            -12.2630787078      -25.7017163765      -29.3605141586  W2        348             0.0000000000
      1044       348  TIP3      H2            -11.6745687078      -25.0263963765      -30.5809541586  W2        348             0.0000000000
      1045       349  TIP3      OH2           -10.0132487078      -25.2814363765      -12.5909741586  W2        349             0.0000000000
      1046       349  TIP3      H1            -10.3418687078      -25.0106263765      -13.4482341586  W2        349             0.0000000000
      1047       349  TIP3      H2             -9.8614287078      -26.2224563765      -12.6784741586  W2        349             0.0000000000
      1048       350  TIP3      OH2            -6.9751487078      -23.8605063765      -30.1553541586  W2        350             0.0000000000
      1049       350  TIP3      H1             -7.2437387078      -23.6802963765      -29.2544641586  W2        350             0.0000000000
      1050       350  TIP3      H2             -7.1815887078      -24.7858863765      -30.2867741586  W2        350             0.0000000000
      1051       351  TIP3      OH2            -4.2787287078      -25.3657063765      -15.2077441586  W2        351             0.0000000000
      1052       351  TIP3      H1             -3.5332487078      -24.7773363765      -15.3273441586  W2        351             0.0000000000
      1053       351  TIP3      H2             -5.0360487078      -24.7837363765      -15.1444341586  W2        351             0.0000000000
      1054       352  TIP3      OH2           -15.8362087078      -28.0509163765      -12.6036841586  W2        352             0.0000000000
      1055       352  TIP3      H1            -15.4280887078      -28.9082563765      -12.7246241586  W2        352             0.0000000000
      1056       352  TIP3      H2            -16.0964487078      -28.0367863765      -11.6826541586  W2        352             0.0000000000
      1057       353  TIP3      OH2           -11.1781087078      -26.9350563765      -27.5853541586  W2        353             0.0000000000
      1058       353  TIP3      H1            -11.6379087078      -27.4192263765      -26.8995041586  W2        353             0.0000000000
      1059       353  TIP3      H2            -10.9232387078      -27.6035163765      -28.2213041586  W2        353             0.0000000000
      1060       354  TIP3      OH2           -11.8891787078      -29.0423463765      -15.2293941586  W2        354             0.0000000000
      1061       354  TIP3      H1            -12.5075687078      -28.3676863765      -14.9489241586  W2        354             0.0000000000
      1062       354  TIP3      H2            -11.5450587078      -28.7209563765      -16.0627741586  W2        354             0.0000000000
      1063       355  TIP3      OH2           -10.1070687078      -28.6918763765      -29.3230341586  W2        355             0.0000000000
      1064       355  TIP3      H1            -10.2875687078      -28.8467563765      -30.2502041586  W2        355             0.0000000000
      1065       355  TIP3      H2             -9.1570187078      -28.5840063765      -29.2782441586  W2        355             0.0000000000
      1066       356  TIP3      OH2            -6.8693587078      -26.5708163765      -11.9519141586  W2        356             0.0000000000
      1067       356  TIP3      H1             -5.9162387078      -26.4869063765      -11.9793141586  W2        356             0.0000000000
      1068       356  TIP3      H2             -7.0298987078      -27.2826363765      -11.3324241586  W2        356             0.0000000000
      1069       357  TIP3      OH2            -0.7172387078      -26.3374563765      -29.8772241586  W2        357             0.0000000000
      1070       357  TIP3      H1             -0.9907587078      -26.7619063765      -30.6903941586  W2        357             0.0000000000
      1071       357  TIP3      H2             -0.6778287078      -25.4060063765      -30.0941841586  W2        357             0.0000000000
      1072       358  TIP3      OH2           -11.5498087078      -31.6872663765      -14.1470841586  W2        358             0.0000000000
      1073       358  TIP3      H1            -11.3997187078      -32.4161363765      -14.7491141586  W2        358             0.0000000000
      1074       358  TIP3      H2            -11.5475687078      -30.9100963765      -14.7058641586  W2        358             0.0000000000
      1075       359  TIP3      OH2           -11.1372387078      -33.3176863765      -16.6543441586  W2        359             0.0000000000
      1076       359  TIP3      H1            -10.6014887078      -32.8660163765      -17.3064141586  W2        359             0.0000000000
      1077       359  TIP3      H2            -11.9892787078      -33.4257063765      -17.0769341586  W2        359             0.0000000000
      1078       360  TIP3      OH2            -9.5553987078      -27.8780663765      -16.4148241586  W2        360             0.0000000000
      1079       360  TIP3      H1             -8.8049187078      -28.0343163765      -16.9880441586  W2        360             0.0000000000
      1080       360  TIP3      H2             -9.8945687078      -27.0264063765      -16.6902741586  W2        360             0.0000000000
      1081       361  TIP3      OH2            -5.1397787078      -30.0628863765      -11.3862941586  W2        361             0.0000000000
      1082       361  TIP3      H1             -4.9476487078      -30.9939463765      -11.4978441586  W2        361             0.0000000000
      1083       361  TIP3      H2             -4.2821487078      -29.6379363765      -11.3967541586  W2        361             0.0000000000
      1084       362  TIP3      OH2            -3.8230587078      -27.2743663765      -13.3090241586  W2        362             0.0000000000
      1085       362  TIP3      H1             -4.1045587078      -26.5649063765      -13.8866441586  W2        362             0.0000000000
      1086       362  TIP3      H2             -2.8806287078      -27.3470663765      -13.4599041586  W2        362             0.0000000000
      1087       363  TIP3      OH2           -13.0711787078      -30.4889163765      -12.2355241586  W2        363             0.0000000000
      1088       363  TIP3      H1            -13.8382787078      -31.0214363765      -12.4457641586  W2        363             0.0000000000
      1089       363  TIP3      H2            -12.3922787078      -30.7988763765      -12.8348941586  W2        363             0.0000000000
      1090       364  TIP3      OH2           -10.3316887078      -35.8611163765      -16.2229841586  W2        364             0.0000000000
      1091       364  TIP3      H1            -10.4297287078      -34.9147963765      -16.3283641586  W2        364             0.0000000000
      1092       364  TIP3      H2            -11.0740687078      -36.2337363765      -16.6986341586  W2        364             0.0000000000
      1093       365  TIP3      OH2            -9.0676387078      -31.5395763765      -12.6591441586  W2        365             0.0000000000
      1094       365  TIP3      H1             -9.3030987078      -31.7589063765      -11.7576541586  W2        365             0.0000000000
      1095       365  TIP3      H2             -9.8509487078      -31.7464563765      -13.1688941586  W2        365             0.0000000000
      1096       366  TIP3      OH2            -6.3519787078      -32.4122263765      -13.5837941586  W2        366             0.0000000000
      1097       366  TIP3      H1             -7.2994387078      -32.3802563765      -13.4514641586  W2        366             0.0000000000
      1098       366  TIP3      H2             -6.0393087078      -33.0375163765      -12.9299741586  W2        366             0.0000000000
      1099       367  TIP3      OH2            -4.7178287078      -33.7781163765      -11.5786041586  W2        367             0.0000000000
      1100       367  TIP3      H1             -4.8146487078      -34.7303863765      -11.5844141586  W2        367             0.0000000000
      1101       367  TIP3      H2             -5.0395187078      -33.5094363765      -10.7180541586  W2        367             0.0000000000
      1102       368  TIP3      OH2           -14.8908987078      -32.5685363765      -12.5310541586  W2        368             0.0000000000
      1103       368  TIP3      H1            -14.6791587078      -33.2749263765      -13.1413041586  W2        368             0.0000000000
      1104       368  TIP3      H2            -15.0021487078      -33.0059363765      -11.6869341586  W2        368             0.0000000000
      1105       369  TIP3      OH2           -10.1098787078      -36.5673763765      -13.5517041586  W2        369             0.0000000000
      1106       369  TIP3      H1             -9.3980387078      -37.2071563765      -13.5657941586  W2        369             0.0000000000
      1107       369  TIP3      H2            -10.2108387078      -36.3005463765      -14.4653941586  W2        369             0.0000000000
      1108       370  TIP3      OH2            -9.7561287078      -34.8845363765      -11.4980741586  W2        370             0.0000000000
      1109       370  TIP3      H1             -9.8879087078      -35.3601563765      -12.3182241586  W2        370             0.0000000000
      1110       370  TIP3      H2            -10.3553887078      -34.1401763765      -11.5533641586  W2        370             0.0000000000
      1111       371  TIP3      OH2           -10.2098987078      -18.0015063765      -28.3216741586  W2        371             0.0000000000
      1112       371  TIP3      H1             -9.2768287078      -17.8436363765      -28.1778341586  W2        371             0.0000000000
      1113       371  TIP3      H2            -10.4740187078      -17.3262063765      -28.9465241586  W2        371             0.0000000000
      1114       372  TIP3      OH2           -16.6414087078      -23.3651263765      -28.8388641586  W2        372             0.0000000000
      1115       372  TIP3      H1            -15.7274887078      -23.2862363765      -28.5654741586  W2        372             0.0000000000
      1116       372  TIP3      H2            -16.6340987078      -24.0521663765      -29.5053041586  W2        372             0.0000000000
      1117       373  TIP3      OH2           -17.9923487078      -17.9722763765      -23.7614741586  W2        373             0.0000000000
      1118       373  TIP3      H1            -18.6396387078      -18.4341063765      -24.2943541586  W2        373             0.0000000000
      1119       373  TIP3      H2            -17.6378887078      -18.6439463765      -23.1788541586  W2        373             0.0000000000
      1120       374  TIP3      OH2           -17.1224287078      -19.8915763765      -21.9568541586  W2        374             0.0000000000
      1121       374  TIP3      H1            -17.4567487078      -20.7718463765      -21.7848341586  W2        374             0.0000000000
      1122       374  TIP3      H2            -16.9001887078      -19.5460763765      -21.0922941586  W2        374             0.0000000000
      1123       375  TIP3      OH2             0.4260512922      -19.0819363765      -18.9763741586  W2        375             0.0000000000
      1124       375  TIP3      H1              0.4047212922      -18.8970963765      -18.0374341586  W2        375             0.0000000000
      1125       375  TIP3      H2              1.1166712922      -18.5135363765      -19.3172341586  W2        375             0.0000000000
      1126       376  TIP3      OH2            -0.0106587078      -19.5148263765      -16.0544641586  W2        376             0.0000000000
      1127       376  TIP3      H1             -0.4977887078      -20.2504163765      -16.4257241586  W2        376             0.0000000000
      1128       376  TIP3      H2              0.5386112922      -19.9084363765      -15.3765241586  W2        376             0.0000000000
      1129       377  TIP3      OH2            -1.5599287078      -23.7250163765      -11.4164341586  W2        377             0.0000000000
      1130       377  TIP3      H1             -2.4258187078      -23.8300463765      -11.0222041586  W2        377             0.0000000000
      1131       377  TIP3      H2             -1.1833387078      -22.9666863765      -10.9699641586  W2        377             0.0000000000
      1132       378  TIP3      OH2            -0.2589587078      -25.4686463765      -25.9021841586  W2        378             0.0000000000
      1133       378  TIP3      H1              0.5911812922      -25.0475563765      -25.7750241586  W2        378             0.0000000000
      1134       378  TIP3      H2             -0.2534487078      -26.2086363765      -25.2950441586  W2        378             0.0000000000
      1135       379  TIP3      OH2             0.1356012922      -27.4149063765      -24.0786141586  W2        379             0.0000000000
      1136       379  TIP3      H1             -0.5909387078      -27.8946463765      -23.6808541586  W2        379             0.0000000000
      1137       379  TIP3      H2              0.7169312922      -27.2094363765      -23.3464541586  W2        379             0.0000000000
      1138       380  TIP3      OH2            -0.1052787078      -24.6301563765      -19.1308541586  W2        380             0.0000000000
      1139       380  TIP3      H1              0.7281412922      -25.0081563765      -19.4114941586  W2        380             0.0000000000
      1140       380  TIP3      H2              0.0067512922      -23.6870363765      -19.2499441586  W2        380             0.0000000000
      1141       381  TIP3      OH2            -1.6190487078      -21.7524063765      -16.8240141586  W2        381             0.0000000000
      1142       381  TIP3      H1             -2.2665187078      -21.4272563765      -16.1984941586  W2        381             0.0000000000
      1143       381  TIP3      H2             -2.1366487078      -22.1926363765      -17.4981841586  W2        381             0.0000000000
      1144       382  TIP3      OH2             0.4039112922      -27.5140563765      -27.6874841586  W2        382             0.0000000000
      1145       382  TIP3      H1             -0.1179787078      -27.1576463765      -28.4063941586  W2        382             0.0000000000
      1146       382  TIP3      H2              0.3708312922      -26.8392763765      -27.0093941586  W2        382             0.0000000000
      1147       383  TIP3      OH2            -1.2471887078      -30.2744963765      -29.1367741586  W2        383             0.0000000000
      1148       383  TIP3      H1             -1.1507487078      -29.6077963765      -29.8168041586  W2        383             0.0000000000
      1149       383  TIP3      H2             -1.3872287078      -31.0898663765      -29.6182241586  W2        383             0.0000000000
      1150       384  TIP3      OH2            -2.0777187078      -28.8942563765      -23.5157441586  W2        384             0.0000000000
      1151       384  TIP3      H1             -2.2278387078      -29.8393963765      -23.5359641586  W2        384             0.0000000000
      1152       384  TIP3      H2             -2.4312687078      -28.6131163765      -22.6718341586  W2        384             0.0000000000
      1153       385  TIP3      OH2           -17.0424787078      -26.8160363765      -19.5053641586  W2        385             0.0000000000
      1154       385  TIP3      H1            -16.8581887078      -26.8978663765      -20.4410741586  W2        385             0.0000000000
      1155       385  TIP3      H2            -16.1931887078      -26.9403363765      -19.0817241586  W2        385             0.0000000000
      1156       386  TIP3      OH2            -1.2214287078      -26.9239263765      -13.8769141586  W2        386             0.0000000000
      1157       386  TIP3      H1             -0.6386987078      -27.6586963765      -13.6851941586  W2        386             0.0000000000
      1158       386  TIP3      H2             -0.6574987078      -26.1518963765      -13.8303341586  W2        386             0.0000000000
      1159       387  TIP3      OH2             0.2752812922      -29.0213463765      -13.1923741586  W2        387             0.0000000000
      1160       387  TIP3      H1             -0.5880487078      -29.4001363765      -13.3579041586  W2        387             0.0000000000
      1161       387  TIP3      H2              0.8796512922      -29.7598663765      -13.2667941586  W2        387             0.0000000000
      1162       388  TIP3      OH2            -1.9998087078      -32.8665163765      -30.0192241586  W2        388             0.0000000000
      1163       388  TIP3      H1             -1.3892287078      -33.2378363765      -29.3824041586  W2        388             0.0000000000
      1164       388  TIP3      H2             -2.8366587078      -33.2878263765      -29.8232241586  W2        388             0.0000000000
      1165       389  TIP3      OH2            -2.3672387078      -31.3116763765      -25.0532341586  W2        389             0.0000000000
      1166       389  TIP3      H1             -2.0875287078      -32.2186363765      -24.9290641586  W2        389             0.0000000000
      1167       389  TIP3      H2             -1.6080687078      -30.8775263765      -25.4423141586  W2        389             0.0000000000
      1168       390  TIP3      OH2            -1.7554087078      -30.7299363765      -19.6173441586  W2        390             0.0000000000
      1169       390  TIP3      H1             -0.8226087078      -30.5179463765      -19.6517441586  W2        390             0.0000000000
      1170       390  TIP3      H2             -1.9906587078      -30.6287263765      -18.6950441586  W2        390             0.0000000000
      1171       391  TIP3      OH2            -1.7262187078      -29.9934063765      -16.8414041586  W2        391             0.0000000000
      1172       391  TIP3      H1             -2.5690887078      -29.7253663765      -16.4754241586  W2        391             0.0000000000
      1173       391  TIP3      H2             -1.2837887078      -29.1712163765      -17.0522941586  W2        391             0.0000000000
      1174       392  TIP3      OH2           -17.4449987078      -31.5455363765      -13.3644841586  W2        392             0.0000000000
      1175       392  TIP3      H1            -16.5255087078      -31.6677063765      -13.1281741586  W2        392             0.0000000000
      1176       392  TIP3      H2            -17.8945487078      -32.2955663765      -12.9751341586  W2        392             0.0000000000
      1177       393  TIP3      OH2             0.5569412922      -36.0133863765      -11.4879041586  W2        393             0.0000000000
      1178       393  TIP3      H1              0.9066412922      -36.6670363765      -12.0934341586  W2        393             0.0000000000
      1179       393  TIP3      H2              0.7038912922      -35.1759763765      -11.9276441586  W2        393             0.0000000000
      1180       394  TIP3      OH2            -1.7537587078      -34.0487463765      -25.0050341586  W2        394             0.0000000000
      1181       394  TIP3      H1             -1.5712587078      -34.4975963765      -24.1795341586  W2        394             0.0000000000
      1182       394  TIP3      H2             -2.3534687078      -34.6333063765      -25.4685741586  W2        394             0.0000000000
      1183       395  TIP3      OH2           -16.2237487078      -33.2333763765      -20.4731941586  W2        395             0.0000000000
      1184       395  TIP3      H1            -15.7785887078      -34.0251263765      -20.1712241586  W2        395             0.0000000000
      1185       395  TIP3      H2            -15.7574487078      -32.5168563765      -20.0426341586  W2        395             0.0000000000
      1186       396  TIP3      OH2           -17.9197187078      -30.2340763765      -19.4041741586  W2        396             0.0000000000
      1187       396  TIP3      H1            -17.4277387078      -30.4550263765      -20.1949741586  W2        396             0.0000000000
      1188       396  TIP3      H2            -17.5576287078      -29.3937363765      -19.1232241586  W2        396             0.0000000000
      1189       397  TIP3      OH2             0.0766612922      -33.9039263765      -13.1387741586  W2        397             0.0000000000
      1190       397  TIP3      H1             -0.8407687078      -33.6332163765      -13.1744241586  W2        397             0.0000000000
      1191       397  TIP3      H2              0.1996012922      -34.4390863765      -13.9228041586  W2        397             0.0000000000
      1192       398  TIP3      OH2             0.1128612922      -33.9809363765      -28.4770041586  W2        398             0.0000000000
      1193       398  TIP3      H1              0.5251212922      -34.7023663765      -28.9522041586  W2        398             0.0000000000
      1194       398  TIP3      H2              0.7945112922      -33.3114763765      -28.4185741586  W2        398             0.0000000000
      1195       399  TIP3      OH2           -17.6060687078      -33.9761663765      -25.3499341586  W2        399             0.0000000000
      1196       399  TIP3      H1            -18.5312287078      -33.7675063765      -25.4793841586  W2        399             0.0000000000
      1197       399  TIP3      H2            -17.1520787078      -33.4920863765      -26.0397041586  W2        399             0.0000000000
      1198       400  TIP3      OH2            -2.8353487078      -18.9919963765      -23.4041941586  W2        400             0.0000000000
      1199       400  TIP3      H1             -2.1830587078      -19.3397863765      -24.0122841586  W2        400             0.0000000000
      1200       400  TIP3      H2             -2.3249687078      -18.5036763765      -22.7582241586  W2        400             0.0000000000
      1201       401  TIP3      OH2           -17.6425287078      -35.2382663765      -17.0056841586  W2        401             0.0000000000
      1202       401  TIP3      H1            -18.3074787078      -35.4842363765      -16.3625941586  W2        401             0.0000000000
      1203       401  TIP3      H2            -18.0853987078      -34.6162263765      -17.5828841586  W2        401             0.0000000000
      1204       402  TIP3      OH2           -15.4505987078      -22.0628563765      -12.8611041586  W2        402             0.0000000000
      1205       402  TIP3      H1            -16.2713487078      -21.8882063765      -13.3216341586  W2        402             0.0000000000
      1206       402  TIP3      H2            -15.7028187078      -22.1363863765      -11.9406641586  W2        402             0.0000000000
      1207       403  TIP3      OH2           -12.4963087078      -21.0887363765      -16.6027041586  W2        403             0.0000000000
      1208       403  TIP3      H1            -12.9211987078      -20.2788863765      -16.8852441586  W2        403             0.0000000000
      1209       403  TIP3      H2            -11.5920287078      -21.0033263765      -16.9047241586  W2        403             0.0000000000
      1210       404  TIP3      OH2            -8.1851687078      -19.6897363765      -13.6433341586  W2        404             0.0000000000
      1211       404  TIP3      H1             -8.0004187078      -20.0231263765      -12.7653041586  W2        404             0.0000000000
      1212       404  TIP3      H2             -7.3387187078      -19.3798763765      -13.9654141586  W2        404             0.0000000000
      1213       405  TIP3      OH2            -5.8401287078      -18.4038463765      -14.3991941586  W2        405             0.0000000000
      1214       405  TIP3      H1             -5.1632387078      -19.0366163765      -14.6392741586  W2        405             0.0000000000
      1215       405  TIP3      H2             -5.5182487078      -18.0027963765      -13.5918641586  W2        405             0.0000000000
      1216       406  TIP3      OH2            -0.9227487078      -35.8142963765      -15.3196941586  W2        406             0.0000000000
      1217       406  TIP3      H1             -1.7353987078      -35.4892663765      -15.7072241586  W2        406             0.0000000000
      1218       406  TIP3      H2             -0.6898987078      -36.5744463765      -15.8527841586  W2        406             0.0000000000
      1219       407  TIP3      OH2           -15.0946387078      -17.8323463765      -16.5551741586  W2        407             0.0000000000
      1220       407  TIP3      H1            -15.8149987078      -17.3922463765      -17.0064041586  W2        407             0.0000000000
      1221       407  TIP3      H2            -15.4602387078      -18.0828763765      -15.7067741586  W2        407             0.0000000000
      1222       408  TIP3      OH2           -12.6273787078      -18.2319563765      -17.5254541586  W2        408             0.0000000000
      1223       408  TIP3      H1            -13.4921587078      -18.1601063765      -17.1214441586  W2        408             0.0000000000
      1224       408  TIP3      H2            -12.6824787078      -17.6852263765      -18.3092041586  W2        408             0.0000000000
      1225       409  TIP3      OH2            -7.9168187078      -18.3440663765      -18.3498541586  W2        409             0.0000000000
      1226       409  TIP3      H1             -8.3734187078      -17.8150963765      -19.0040141586  W2        409             0.0000000000
      1227       409  TIP3      H2             -7.7540187078      -17.7409263765      -17.6246241586  W2        409             0.0000000000
      1228       410  TIP3      OH2            -5.5891887078      -19.4661063765      -17.4048241586  W2        410             0.0000000000
      1229       410  TIP3      H1             -6.4938187078      -19.3010863765      -17.6706141586  W2        410             0.0000000000
      1230       410  TIP3      H2             -5.1603287078      -18.6128863765      -17.4704841586  W2        410             0.0000000000
      1231       411  TIP3      OH2            -2.9849987078      -17.8961963765      -17.1100441586  W2        411             0.0000000000
      1232       411  TIP3      H1             -3.1667987078      -16.9803063765      -17.3205541586  W2        411             0.0000000000
      1233       411  TIP3      H2             -2.8082187078      -18.3064863765      -17.9565841586  W2        411             0.0000000000
      1234       412  TIP3      OH2           -15.6798287078      -19.2090963765      -19.6449941586  W2        412             0.0000000000
      1235       412  TIP3      H1            -15.6982287078      -19.6345863765      -18.7877641586  W2        412             0.0000000000
      1236       412  TIP3      H2            -14.8750387078      -19.5275963765      -20.0537741586  W2        412             0.0000000000
      1237       413  TIP3      OH2           -13.5385187078      -20.4992263765      -20.9900041586  W2        413             0.0000000000
      1238       413  TIP3      H1            -13.7574487078      -21.4154863765      -20.8204041586  W2        413             0.0000000000
      1239       413  TIP3      H2            -12.7142987078      -20.3591863765      -20.5238641586  W2        413             0.0000000000
      1240       414  TIP3      OH2           -11.0012687078      -20.0292963765      -20.1412041586  W2        414             0.0000000000
      1241       414  TIP3      H1            -10.7886987078      -20.9173963765      -20.4281141586  W2        414             0.0000000000
      1242       414  TIP3      H2            -10.9367587078      -20.0635263765      -19.1868041586  W2        414             0.0000000000
      1243       415  TIP3      OH2            -7.4928987078      -34.3652363765      -20.9968741586  W2        415             0.0000000000
      1244       415  TIP3      H1             -8.1672187078      -34.9946763765      -20.7412941586  W2        415             0.0000000000
      1245       415  TIP3      H2             -6.9289787078      -34.8493463765      -21.6000841586  W2        415             0.0000000000
      1246       416  TIP3      OH2            -2.3501787078      -36.2578363765      -20.8841641586  W2        416             0.0000000000
      1247       416  TIP3      H1             -1.7464187078      -35.7102963765      -21.3860641586  W2        416             0.0000000000
      1248       416  TIP3      H2             -3.2199787078      -35.9387963765      -21.1247541586  W2        416             0.0000000000
      1249       417  TIP3      OH2            -0.6231387078      -35.1189663765      -22.5510741586  W2        417             0.0000000000
      1250       417  TIP3      H1             -0.0113887078      -35.6333963765      -23.0777141586  W2        417             0.0000000000
      1251       417  TIP3      H2             -0.2407987078      -34.2417563765      -22.5276341586  W2        417             0.0000000000
      1252       418  TIP3      OH2           -15.1661487078      -35.7312063765      -23.1748841586  W2        418             0.0000000000
      1253       418  TIP3      H1            -15.9431687078      -35.9657163765      -23.6822941586  W2        418             0.0000000000
      1254       418  TIP3      H2            -14.6357887078      -36.5279963765      -23.1660841586  W2        418             0.0000000000
      1255       419  TIP3      OH2           -16.3298087078      -35.9333963765      -27.3712741586  W2        419             0.0000000000
      1256       419  TIP3      H1            -15.8907387078      -35.3223463765      -27.9629241586  W2        419             0.0000000000
      1257       419  TIP3      H2            -16.9635687078      -35.3949863765      -26.8972741586  W2        419             0.0000000000
      1258       420  TIP3      OH2           -10.5868887078      -35.8044963765      -23.3615741586  W2        420             0.0000000000
      1259       420  TIP3      H1             -9.7125487078      -35.4160663765      -23.3911441586  W2        420             0.0000000000
      1260       420  TIP3      H2            -10.7228087078      -36.0197163765      -22.4388541586  W2        420             0.0000000000
      1261       421  TIP3      OH2            -5.0300487078      -35.7745163765      -21.7124041586  W2        421             0.0000000000
      1262       421  TIP3      H1             -4.9538887078      -35.6793563765      -22.6618041586  W2        421             0.0000000000
      1263       421  TIP3      H2             -5.3051287078      -36.6822263765      -21.5834941586  W2        421             0.0000000000
      1264       422  TIP3      OH2            -3.6767887078      -35.7487363765      -26.0199041586  W2        422             0.0000000000
      1265       422  TIP3      H1             -4.3796787078      -35.1338163765      -26.2297641586  W2        422             0.0000000000
      1266       422  TIP3      H2             -4.1216487078      -36.5860663765      -25.8888141586  W2        422             0.0000000000
      1267       423  TIP3      OH2           -16.4288587078      -19.9851763765      -26.4737641586  W2        423             0.0000000000
      1268       423  TIP3      H1            -17.1138687078      -20.0232863765      -27.1412541586  W2        423             0.0000000000
      1269       423  TIP3      H2            -16.4251387078      -19.0724163765      -26.1855541586  W2        423             0.0000000000
      1270       424  TIP3      OH2           -14.4688987078      -34.0172463765      -28.9288641586  W2        424             0.0000000000
      1271       424  TIP3      H1            -13.9775587078      -34.6470063765      -29.4563141586  W2        424             0.0000000000
      1272       424  TIP3      H2            -13.8452687078      -33.7213063765      -28.2657441586  W2        424             0.0000000000
      1273       425  TIP3      OH2            -9.4428887078      -33.7240963765      -26.4718141586  W2        425             0.0000000000
      1274       425  TIP3      H1             -9.2647587078      -34.3707763765      -25.7889541586  W2        425             0.0000000000
      1275       425  TIP3      H2             -9.4962687078      -32.8903263765      -26.0047041586  W2        425             0.0000000000
      1276       426  TIP3      OH2            -7.5645087078      -18.7756863765      -28.0761441586  W2        426             0.0000000000
      1277       426  TIP3      H1             -6.6984887078      -18.4089463765      -28.2543241586  W2        426             0.0000000000
      1278       426  TIP3      H2             -7.8112287078      -19.2148863765      -28.8900641586  W2        426             0.0000000000
      1279       427  TIP3      OH2            -0.8555487078      -19.2126563765      -25.3970341586  W2        427             0.0000000000
      1280       427  TIP3      H1             -1.0498387078      -19.9604463765      -25.9620741586  W2        427             0.0000000000
      1281       427  TIP3      H2             -0.8945387078      -18.4546463765      -25.9802441586  W2        427             0.0000000000
      1282       428  TIP3      OH2           -15.2083487078      -35.2170163765      -13.6572641586  W2        428             0.0000000000
      1283       428  TIP3      H1            -15.5745287078      -35.9827563765      -13.2147941586  W2        428             0.0000000000
      1284       428  TIP3      H2            -14.2954987078      -35.1879963765      -13.3707541586  W2        428             0.0000000000
      1285       429  TIP3      OH2           -13.2352687078      -35.8665763765      -12.1215541586  W2        429             0.0000000000
      1286       429  TIP3      H1            -12.3369087078      -36.1405563765      -12.3062141586  W2        429             0.0000000000
      1287       429  TIP3      H2            -13.6219587078      -36.6089763765      -11.6572941586  W2        429             0.0000000000
      1288       430  TIP3      OH2           -14.6107387078      -19.0650963765      -29.4485541586  W2        430             0.0000000000
      1289       430  TIP3      H1            -14.8782787078      -18.7788063765      -28.5752441586  W2        430             0.0000000000
      1290       430  TIP3      H2            -13.8394787078      -19.6111763765      -29.2963041586  W2        430             0.0000000000
      1291       431  TIP3      OH2            -4.8140387078      -36.5340463765      -11.9392741586  W2        431             0.0000000000
      1292       431  TIP3      H1             -4.7373187078      -36.9599763765      -11.0855041586  W2        431             0.0000000000
      1293       431  TIP3      H2             -3.9203787078      -36.5205763765      -12.2819241586  W2        431             0.0000000000
      1294       432  TIP3      OH2            -1.6379287078      -20.4614163765      -13.2468541586  W2        432             0.0000000000
      1295       432  TIP3      H1             -2.4197387078      -20.6476163765      -13.7667941586  W2        432             0.0000000000
      1296       432  TIP3      H2             -1.7099387078      -19.5319863765      -13.0296041586  W2        432             0.0000000000
      1297       433  TIP3      OH2            12.7681112922      -26.5749763765      -23.2161341586  W2        433             0.0000000000
      1298       433  TIP3      H1             12.8572212922      -25.6311563765      -23.3484241586  W2        433             0.0000000000
      1299       433  TIP3      H2             12.1298712922      -26.8503363765      -23.8741941586  W2        433             0.0000000000
      1300       434  TIP3      OH2            11.7012412922      -27.3199063765      -19.7973141586  W2        434             0.0000000000
      1301       434  TIP3      H1             11.6629912922      -27.9662763765      -19.0923541586  W2        434             0.0000000000
      1302       434  TIP3      H2             11.3788912922      -27.7864663765      -20.5684441586  W2        434             0.0000000000
      1303       435  TIP3      OH2             4.0697412922      -27.7056963765      -18.2043241586  W2        435             0.0000000000
      1304       435  TIP3      H1              4.1109512922      -28.3313663765      -17.4810841586  W2        435             0.0000000000
      1305       435  TIP3      H2              4.7725112922      -27.0818363765      -18.0222841586  W2        435             0.0000000000
      1306       436  TIP3      OH2            15.4072612922      -24.3808663765      -21.4958041586  W2        436             0.0000000000
      1307       436  TIP3      H1             14.9665312922      -25.1012663765      -21.0452441586  W2        436             0.0000000000
      1308       436  TIP3      H2             15.3942312922      -23.6601463765      -20.8660341586  W2        436             0.0000000000
      1309       437  TIP3      OH2             4.9930512922      -23.2558063765      -19.6694141586  W2        437             0.0000000000
      1310       437  TIP3      H1              4.6235712922      -24.0577563765      -20.0389841586  W2        437             0.0000000000
      1311       437  TIP3      H2              5.9341612922      -23.4243163765      -19.6230741586  W2        437             0.0000000000
      1312       438  TIP3      OH2             1.6031012922      -29.5955463765      -24.2765341586  W2        438             0.0000000000
      1313       438  TIP3      H1              1.1554412922      -28.7496763765      -24.2948841586  W2        438             0.0000000000
      1314       438  TIP3      H2              1.0422212922      -30.1751263765      -24.7920241586  W2        438             0.0000000000
      1315       439  TIP3      OH2             2.3137112922      -27.4335863765      -22.1507341586  W2        439             0.0000000000
      1316       439  TIP3      H1              2.5270612922      -28.2034263765      -21.6234341586  W2        439             0.0000000000
      1317       439  TIP3      H2              3.0514712922      -27.3439163765      -22.7539741586  W2        439             0.0000000000
      1318       440  TIP3      OH2            12.5188112922      -19.2766963765      -21.2837641586  W2        440             0.0000000000
      1319       440  TIP3      H1             13.1384512922      -19.9532263765      -21.5568441586  W2        440             0.0000000000
      1320       440  TIP3      H2             12.3105512922      -19.4946163765      -20.3752741586  W2        440             0.0000000000
      1321       441  TIP3      OH2            10.0906812922      -24.8877663765      -19.3912141586  W2        441             0.0000000000
      1322       441  TIP3      H1             10.3944712922      -25.5736263765      -19.9858041586  W2        441             0.0000000000
      1323       441  TIP3      H2             10.8120812922      -24.7688963765      -18.7734141586  W2        441             0.0000000000
      1324       442  TIP3      OH2            18.7536612922      -33.2862363765      -18.5305941586  W2        442             0.0000000000
      1325       442  TIP3      H1             18.8028812922      -32.6761163765      -17.7946841586  W2        442             0.0000000000
      1326       442  TIP3      H2             19.1791712922      -32.8251463765      -19.2534841586  W2        442             0.0000000000
      1327       443  TIP3      OH2            13.2313812922      -30.4935263765      -19.0637341586  W2        443             0.0000000000
      1328       443  TIP3      H1             13.3739712922      -31.4398263765      -19.0435741586  W2        443             0.0000000000
      1329       443  TIP3      H2             13.1252812922      -30.2865463765      -19.9922441586  W2        443             0.0000000000
      1330       444  TIP3      OH2             6.3862112922      -32.3918863765      -21.7912541586  W2        444             0.0000000000
      1331       444  TIP3      H1              6.4293212922      -31.5320363765      -22.2096241586  W2        444             0.0000000000
      1332       444  TIP3      H2              5.9286212922      -32.9444163765      -22.4249341586  W2        444             0.0000000000
      1333       445  TIP3      OH2            14.1084812922      -32.2613263765      -23.3904241586  W2        445             0.0000000000
      1334       445  TIP3      H1             14.7549112922      -32.5900063765      -22.7656641586  W2        445             0.0000000000
      1335       445  TIP3      H2             14.6184212922      -31.7434263765      -24.0132841586  W2        445             0.0000000000
      1336       446  TIP3      OH2             3.0063612922      -29.9953063765      -21.0291141586  W2        446             0.0000000000
      1337       446  TIP3      H1              3.6600212922      -30.5451363765      -20.5971041586  W2        446             0.0000000000
      1338       446  TIP3      H2              3.0302912922      -30.2694063765      -21.9459141586  W2        446             0.0000000000
      1339       447  TIP3      OH2             8.1628112922      -28.4451763765      -21.8139641586  W2        447             0.0000000000
      1340       447  TIP3      H1              8.7789112922      -28.9716363765      -21.3045641586  W2        447             0.0000000000
      1341       447  TIP3      H2              7.5766912922      -29.0853063765      -22.2176041586  W2        447             0.0000000000
      1342       448  TIP3      OH2            19.1451212922      -31.8083163765      -16.2946141586  W2        448             0.0000000000
      1343       448  TIP3      H1             18.4565812922      -31.1502463765      -16.3899541586  W2        448             0.0000000000
      1344       448  TIP3      H2             19.1605812922      -32.0055263765      -15.3580741586  W2        448             0.0000000000
      1345       449  TIP3      OH2             5.1964012922      -33.4740463765      -17.7171741586  W2        449             0.0000000000
      1346       449  TIP3      H1              4.9775712922      -32.9439863765      -18.4835741586  W2        449             0.0000000000
      1347       449  TIP3      H2              4.5284912922      -33.2474963765      -17.0700341586  W2        449             0.0000000000
      1348       450  TIP3      OH2            12.5653812922      -23.9739363765      -24.1732641586  W2        450             0.0000000000
      1349       450  TIP3      H1             12.2698912922      -24.2967063765      -25.0245741586  W2        450             0.0000000000
      1350       450  TIP3      H2             12.2411612922      -23.0742663765      -24.1320041586  W2        450             0.0000000000
      1351       451  TIP3      OH2             7.7655412922      -25.7984763765      -17.4298041586  W2        451             0.0000000000
      1352       451  TIP3      H1              7.0254512922      -25.2003263765      -17.3262841586  W2        451             0.0000000000
      1353       451  TIP3      H2              8.4794912922      -25.2445163765      -17.7454441586  W2        451             0.0000000000
      1354       452  TIP3      OH2            15.8723212922      -32.9703963765      -21.4098341586  W2        452             0.0000000000
      1355       452  TIP3      H1             15.6571212922      -33.7360563765      -20.8772341586  W2        452             0.0000000000
      1356       452  TIP3      H2             16.5280612922      -32.4979363765      -20.8969841586  W2        452             0.0000000000
      1357       453  TIP3      OH2             4.7901312922      -31.5818663765      -19.7649541586  W2        453             0.0000000000
      1358       453  TIP3      H1              5.4037612922      -30.9491063765      -19.3917141586  W2        453             0.0000000000
      1359       453  TIP3      H2              5.3022012922      -32.0543663765      -20.4212641586  W2        453             0.0000000000
      1360       454  TIP3      OH2             6.1729712922      -23.8341763765      -16.6426541586  W2        454             0.0000000000
      1361       454  TIP3      H1              6.1677312922      -22.9548263765      -17.0207241586  W2        454             0.0000000000
      1362       454  TIP3      H2              5.3193812922      -23.9177663765      -16.2176641586  W2        454             0.0000000000
      1363       455  TIP3      OH2             2.2940612922      -24.1633863765      -25.8607241586  W2        455             0.0000000000
      1364       455  TIP3      H1              2.0221512922      -23.9342863765      -26.7494341586  W2        455             0.0000000000
      1365       455  TIP3      H2              2.3396312922      -23.3255063765      -25.4001941586  W2        455             0.0000000000
      1366       456  TIP3      OH2            15.9190312922      -22.5417963765      -19.1478741586  W2        456             0.0000000000
      1367       456  TIP3      H1             14.9774012922      -22.4834063765      -18.9861841586  W2        456             0.0000000000
      1368       456  TIP3      H2             16.1956412922      -21.6357463765      -19.2849041586  W2        456             0.0000000000
      1369       457  TIP3      OH2            16.2197312922      -34.2552663765      -17.7304841586  W2        457             0.0000000000
      1370       457  TIP3      H1             15.4836512922      -33.6445563765      -17.7683541586  W2        457             0.0000000000
      1371       457  TIP3      H2             16.9031312922      -33.8403663765      -18.2568441586  W2        457             0.0000000000
      1372       458  TIP3      OH2             9.2228712922      -36.1685363765      -20.2646841586  W2        458             0.0000000000
      1373       458  TIP3      H1              9.1052912922      -37.1169363765      -20.3188541586  W2        458             0.0000000000
      1374       458  TIP3      H2              8.3678812922      -35.8359263765      -19.9915741586  W2        458             0.0000000000
      1375       459  TIP3      OH2            14.1711512922      -20.7604463765      -22.5227141586  W2        459             0.0000000000
      1376       459  TIP3      H1             14.5963812922      -21.4676563765      -23.0077541586  W2        459             0.0000000000
      1377       459  TIP3      H2             14.4881512922      -19.9591763765      -22.9394941586  W2        459             0.0000000000
      1378       460  TIP3      OH2            15.3308012922      -22.8595963765      -24.0140541586  W2        460             0.0000000000
      1379       460  TIP3      H1             15.0732812922      -23.5495863765      -24.6254641586  W2        460             0.0000000000
      1380       460  TIP3      H2             15.4018812922      -23.3024763765      -23.1684641586  W2        460             0.0000000000
      1381       461  TIP3      OH2            17.0168212922      -24.2929263765      -15.5367041586  W2        461             0.0000000000
      1382       461  TIP3      H1             17.1564512922      -24.8846763765      -16.2760041586  W2        461             0.0000000000
      1383       461  TIP3      H2             17.1841012922      -23.4203363765      -15.8928241586  W2        461             0.0000000000
      1384       462  TIP3      OH2            11.4893612922      -27.3309763765      -25.7641041586  W2        462             0.0000000000
      1385       462  TIP3      H1             10.7779112922      -26.7960063765      -26.1160541586  W2        462             0.0000000000
      1386       462  TIP3      H2             12.1803212922      -27.2757663765      -26.4242141586  W2        462             0.0000000000
      1387       463  TIP3      OH2            11.5432812922      -28.8735463765      -28.7256041586  W2        463             0.0000000000
      1388       463  TIP3      H1             12.2442712922      -28.8508563765      -28.0742041586  W2        463             0.0000000000
      1389       463  TIP3      H2             11.8455712922      -29.5015763765      -29.3816741586  W2        463             0.0000000000
      1390       464  TIP3      OH2            18.8587512922      -27.9531263765      -17.4706641586  W2        464             0.0000000000
      1391       464  TIP3      H1             18.2061612922      -27.2585663765      -17.3815741586  W2        464             0.0000000000
      1392       464  TIP3      H2             19.3237812922      -27.7430363765      -18.2805041586  W2        464             0.0000000000
      1393       465  TIP3      OH2            14.8951312922      -27.1216463765      -24.8125141586  W2        465             0.0000000000
      1394       465  TIP3      H1             14.1632312922      -26.8932763765      -24.2394541586  W2        465             0.0000000000
      1395       465  TIP3      H2             15.3423512922      -27.8353763765      -24.3577641586  W2        465             0.0000000000
      1396       466  TIP3      OH2            14.7924812922      -28.9473863765      -15.7448141586  W2        466             0.0000000000
      1397       466  TIP3      H1             14.8723912922      -28.1839463765      -15.1729641586  W2        466             0.0000000000
      1398       466  TIP3      H2             14.1912512922      -28.6681463765      -16.4353041586  W2        466             0.0000000000
      1399       467  TIP3      OH2             6.5405012922      -26.4910263765      -22.9300141586  W2        467             0.0000000000
      1400       467  TIP3      H1              6.2100212922      -26.8616863765      -23.7483141586  W2        467             0.0000000000
      1401       467  TIP3      H2              7.1289112922      -27.1616263765      -22.5831841586  W2        467             0.0000000000
      1402       468  TIP3      OH2             7.9072512922      -23.0629663765      -20.2487941586  W2        468             0.0000000000
      1403       468  TIP3      H1              7.8123812922      -23.6416563765      -21.0053341586  W2        468             0.0000000000
      1404       468  TIP3      H2              8.6366112922      -23.4343963765      -19.7525141586  W2        468             0.0000000000
      1405       469  TIP3      OH2             6.9070512922      -27.7224663765      -19.2965141586  W2        469             0.0000000000
      1406       469  TIP3      H1              7.4723012922      -27.6010463765      -20.0593941586  W2        469             0.0000000000
      1407       469  TIP3      H2              7.2259412922      -27.0849663765      -18.6576641586  W2        469             0.0000000000
      1408       470  TIP3      OH2            13.2162712922      -22.2192763765      -18.5624641586  W2        470             0.0000000000
      1409       470  TIP3      H1             12.9759312922      -21.5569663765      -17.9145441586  W2        470             0.0000000000
      1410       470  TIP3      H2             13.0180912922      -23.0537563765      -18.1375041586  W2        470             0.0000000000
      1411       471  TIP3      OH2             7.7871212922      -23.3231963765      -14.5793241586  W2        471             0.0000000000
      1412       471  TIP3      H1              7.4758712922      -22.5408763765      -14.1240041586  W2        471             0.0000000000
      1413       471  TIP3      H2              7.1371412922      -23.4762863765      -15.2651241586  W2        471             0.0000000000
      1414       472  TIP3      OH2            13.7660812922      -27.9593563765      -27.1273941586  W2        472             0.0000000000
      1415       472  TIP3      H1             14.3456312922      -27.8093263765      -26.3805041586  W2        472             0.0000000000
      1416       472  TIP3      H2             14.1800812922      -27.4886163765      -27.8507541586  W2        472             0.0000000000
      1417       473  TIP3      OH2             4.7071112922      -27.1250863765      -15.3507541586  W2        473             0.0000000000
      1418       473  TIP3      H1              4.7774312922      -26.4744063765      -14.6522541586  W2        473             0.0000000000
      1419       473  TIP3      H2              3.8163312922      -27.0223363765      -15.6856641586  W2        473             0.0000000000
      1420       474  TIP3      OH2            11.4925712922      -21.2225063765      -23.6920841586  W2        474             0.0000000000
      1421       474  TIP3      H1             11.9663312922      -20.9268763765      -22.9146641586  W2        474             0.0000000000
      1422       474  TIP3      H2             10.9295012922      -20.4843463765      -23.9251241586  W2        474             0.0000000000
      1423       475  TIP3      OH2             6.0267112922      -21.2516963765      -13.8159441586  W2        475             0.0000000000
      1424       475  TIP3      H1              6.0342412922      -21.3877263765      -14.7633941586  W2        475             0.0000000000
      1425       475  TIP3      H2              5.1107512922      -21.3688863765      -13.5639441586  W2        475             0.0000000000
      1426       476  TIP3      OH2            17.4649212922      -36.2093163765      -27.3144241586  W2        476             0.0000000000
      1427       476  TIP3      H1             16.5649912922      -36.0704163765      -27.0193641586  W2        476             0.0000000000
      1428       476  TIP3      H2             17.7167612922      -35.3778563765      -27.7162541586  W2        476             0.0000000000
      1429       477  TIP3      OH2             5.5307712922      -27.4215963765      -25.3407341586  W2        477             0.0000000000
      1430       477  TIP3      H1              5.2389012922      -26.6534263765      -25.8316041586  W2        477             0.0000000000
      1431       477  TIP3      H2              4.8562912922      -28.0809763765      -25.5035941586  W2        477             0.0000000000
      1432       478  TIP3      OH2            18.6540612922      -21.8430763765      -28.9380341586  W2        478             0.0000000000
      1433       478  TIP3      H1             18.7274112922      -20.9040563765      -28.7675041586  W2        478             0.0000000000
      1434       478  TIP3      H2             19.5595712922      -22.1482163765      -28.9943041586  W2        478             0.0000000000
      1435       479  TIP3      OH2             1.6237812922      -25.0586763765      -16.5257541586  W2        479             0.0000000000
      1436       479  TIP3      H1              1.1226212922      -25.0867363765      -17.3407841586  W2        479             0.0000000000
      1437       479  TIP3      H2              1.6291512922      -25.9643563765      -16.2160241586  W2        479             0.0000000000
      1438       480  TIP3      OH2             1.3740512922      -22.2782963765      -19.6417341586  W2        480             0.0000000000
      1439       480  TIP3      H1              2.3201112922      -22.4225963765      -19.6607841586  W2        480             0.0000000000
      1440       480  TIP3      H2              1.2616812922      -21.4940163765      -19.1046141586  W2        480             0.0000000000
      1441       481  TIP3      OH2            19.5719012922      -21.6123263765      -13.9593641586  W2        481             0.0000000000
      1442       481  TIP3      H1             19.5225812922      -22.5675163765      -13.9966041586  W2        481             0.0000000000
      1443       481  TIP3      H2             18.7451312922      -21.3447963765      -13.5579841586  W2        481             0.0000000000
      1444       482  TIP3      OH2            10.5503012922      -22.0384063765      -15.0832241586  W2        482             0.0000000000
      1445       482  TIP3      H1             10.6377612922      -21.2119463765      -14.6083141586  W2        482             0.0000000000
      1446       482  TIP3      H2              9.6868112922      -22.3680263765      -14.8342941586  W2        482             0.0000000000
      1447       483  TIP3      OH2            10.9648812922      -18.2660363765      -25.2771641586  W2        483             0.0000000000
      1448       483  TIP3      H1             10.8894812922      -18.3873163765      -26.2236441586  W2        483             0.0000000000
      1449       483  TIP3      H2             10.9977512922      -17.3167663765      -25.1587041586  W2        483             0.0000000000
      1450       484  TIP3      OH2             4.6182612922      -19.4773363765      -23.4962641586  W2        484             0.0000000000
      1451       484  TIP3      H1              4.7703012922      -19.8252963765      -22.6176141586  W2        484             0.0000000000
      1452       484  TIP3      H2              3.7673012922      -19.8336063765      -23.7515441586  W2        484             0.0000000000
      1453       485  TIP3      OH2            14.0664812922      -19.1120163765      -28.2749241586  W2        485             0.0000000000
      1454       485  TIP3      H1             14.4413212922      -19.8564063765      -28.7456641586  W2        485             0.0000000000
      1455       485  TIP3      H2             14.0708512922      -19.3819563765      -27.3565941586  W2        485             0.0000000000
      1456       486  TIP3      OH2            13.7352912922      -19.1863063765      -25.5257041586  W2        486             0.0000000000
      1457       486  TIP3      H1             12.8002712922      -19.0861163765      -25.3470041586  W2        486             0.0000000000
      1458       486  TIP3      H2             14.0154812922      -19.8957063765      -24.9473841586  W2        486             0.0000000000
      1459       487  TIP3      OH2            16.7238812922      -30.1190763765      -13.4791441586  W2        487             0.0000000000
      1460       487  TIP3      H1             16.3165612922      -29.6385163765      -14.1998141586  W2        487             0.0000000000
      1461       487  TIP3      H2             16.7644512922      -31.0244763765      -13.7870641586  W2        487             0.0000000000
      1462       488  TIP3      OH2             3.8728312922      -23.7351363765      -15.4824741586  W2        488             0.0000000000
      1463       488  TIP3      H1              4.0889612922      -24.0965763765      -14.6228941586  W2        488             0.0000000000
      1464       488  TIP3      H2              3.0173012922      -24.1097563765      -15.6921241586  W2        488             0.0000000000
      1465       489  TIP3      OH2             6.4916312922      -35.2650863765      -19.4870541586  W2        489             0.0000000000
      1466       489  TIP3      H1              5.6300012922      -35.3522663765      -19.8947641586  W2        489             0.0000000000
      1467       489  TIP3      H2              6.4692012922      -34.4090763765      -19.0592941586  W2        489             0.0000000000
      1468       490  TIP3      OH2            11.1544112922      -35.5430463765      -16.1123541586  W2        490             0.0000000000
      1469       490  TIP3      H1             11.5747212922      -35.9583363765      -15.3592941586  W2        490             0.0000000000
      1470       490  TIP3      H2             10.2213712922      -35.7217163765      -15.9951541586  W2        490             0.0000000000
      1471       491  TIP3      OH2            14.4809012922      -31.7875263765      -15.2589041586  W2        491             0.0000000000
      1472       491  TIP3      H1             13.9668512922      -31.9133063765      -14.4613041586  W2        491             0.0000000000
      1473       491  TIP3      H2             14.3253712922      -30.8752163765      -15.5032841586  W2        491             0.0000000000
      1474       492  TIP3      OH2            15.2433912922      -26.9265263765      -29.4976041586  W2        492             0.0000000000
      1475       492  TIP3      H1             15.2854712922      -27.1491363765      -30.4276041586  W2        492             0.0000000000
      1476       492  TIP3      H2             16.0926012922      -26.5278163765      -29.3076141586  W2        492             0.0000000000
      1477       493  TIP3      OH2            10.8161412922      -33.0507063765      -28.8272741586  W2        493             0.0000000000
      1478       493  TIP3      H1             10.5626212922      -33.0315463765      -27.9044641586  W2        493             0.0000000000
      1479       493  TIP3      H2             10.5593512922      -33.9221663765      -29.1286541586  W2        493             0.0000000000
      1480       494  TIP3      OH2             6.5826412922      -30.2996363765      -18.3920341586  W2        494             0.0000000000
      1481       494  TIP3      H1              5.9408512922      -30.3399063765      -17.6830241586  W2        494             0.0000000000
      1482       494  TIP3      H2              6.6198412922      -29.3731663765      -18.6297341586  W2        494             0.0000000000
      1483       495  TIP3      OH2             6.5795512922      -30.0786263765      -23.4800341586  W2        495             0.0000000000
      1484       495  TIP3      H1              5.6868412922      -30.4190163765      -23.5386541586  W2        495             0.0000000000
      1485       495  TIP3      H2              7.0302112922      -30.4555363765      -24.2357141586  W2        495             0.0000000000
      1486       496  TIP3      OH2            12.1151012922      -29.6625963765      -24.6629541586  W2        496             0.0000000000
      1487       496  TIP3      H1             11.7061312922      -28.8477363765      -24.9544741586  W2        496             0.0000000000
      1488       496  TIP3      H2             12.8357212922      -29.8025863765      -25.2772441586  W2        496             0.0000000000
      1489       497  TIP3      OH2            11.2172612922      -29.4869563765      -13.1748841586  W2        497             0.0000000000
      1490       497  TIP3      H1             10.6546412922      -30.1917963765      -12.8541041586  W2        497             0.0000000000
      1491       497  TIP3      H2             12.0436012922      -29.6077663765      -12.7071241586  W2        497             0.0000000000
      1492       498  TIP3      OH2            13.1198712922      -30.2165563765      -21.8489841586  W2        498             0.0000000000
      1493       498  TIP3      H1             12.9243212922      -29.6108763765      -22.5639241586  W2        498             0.0000000000
      1494       498  TIP3      H2             13.3011312922      -31.0500363765      -22.2833541586  W2        498             0.0000000000
      1495       499  TIP3      OH2             4.3326912922      -29.9792863765      -16.5248341586  W2        499             0.0000000000
      1496       499  TIP3      H1              4.2946312922      -29.5791263765      -15.6561241586  W2        499             0.0000000000
      1497       499  TIP3      H2              3.8418012922      -30.7960463765      -16.4345441586  W2        499             0.0000000000
      1498       500  TIP3      OH2             7.6984312922      -32.6050563765      -29.7262341586  W2        500             0.0000000000
      1499       500  TIP3      H1              7.2675012922      -33.0500463765      -28.9964941586  W2        500             0.0000000000
      1500       500  TIP3      H2              6.9803012922      -32.2334263765      -30.2384841586  W2        500             0.0000000000
      1501       501  TIP3      OH2             0.9407712922      -32.8631063765      -22.6743641586  W2        501             0.0000000000
      1502       501  TIP3      H1              1.5715412922      -32.8918963765      -21.9549741586  W2        501             0.0000000000
      1503       501  TIP3      H2              1.3902012922      -33.2882363765      -23.4047741586  W2        501             0.0000000000
      1504       502  TIP3      OH2             2.2149812922      -32.1169063765      -27.2503241586  W2        502             0.0000000000
      1505       502  TIP3      H1              2.6891512922      -31.5259163765      -27.8352341586  W2        502             0.0000000000
      1506       502  TIP3      H2              1.4976212922      -31.5866163765      -26.9033141586  W2        502             0.0000000000
      1507       503  TIP3      OH2            12.3837912922      -28.5784263765      -17.1777441586  W2        503             0.0000000000
      1508       503  TIP3      H1             12.7072712922      -29.2094563765      -17.8206941586  W2        503             0.0000000000
      1509       503  TIP3      H2             11.9437212922      -29.1132063765      -16.5170041586  W2        503             0.0000000000
      1510       504  TIP3      OH2             9.1610812922      -32.6508763765      -22.3936241586  W2        504             0.0000000000
      1511       504  TIP3      H1              8.2501912922      -32.5941963765      -22.1050241586  W2        504             0.0000000000
      1512       504  TIP3      H2              9.6663712922      -32.7113263765      -21.5829041586  W2        504             0.0000000000
      1513       505  TIP3      OH2             3.9894212922      -31.0222463765      -23.5668641586  W2        505             0.0000000000
      1514       505  TIP3      H1              3.1002212922      -30.9226963765      -23.9069041586  W2        505             0.0000000000
      1515       505  TIP3      H2              4.2859112922      -31.8639463765      -23.9130741586  W2        505             0.0000000000
      1516       506  TIP3      OH2             7.6426012922      -31.0219863765      -25.9104041586  W2        506             0.0000000000
      1517       506  TIP3      H1              8.5741512922      -30.8929863765      -25.7320941586  W2        506             0.0000000000
      1518       506  TIP3      H2              7.4276312922      -30.3525563765      -26.5599341586  W2        506             0.0000000000
      1519       507  TIP3      OH2            13.5662712922      -33.4162463765      -19.1294441586  W2        507             0.0000000000
      1520       507  TIP3      H1             12.8894312922      -33.2849363765      -18.4654741586  W2        507             0.0000000000
      1521       507  TIP3      H2             13.0807612922      -33.5712963765      -19.9396741586  W2        507             0.0000000000
      1522       508  TIP3      OH2             6.3166212922      -29.8277663765      -28.3437941586  W2        508             0.0000000000
      1523       508  TIP3      H1              5.7741312922      -30.2073863765      -29.0350341586  W2        508             0.0000000000
      1524       508  TIP3      H2              7.1501112922      -29.6332963765      -28.7723841586  W2        508             0.0000000000
      1525       509  TIP3      OH2            16.8537812922      -17.7447063765      -12.8526841586  W2        509             0.0000000000
      1526       509  TIP3      H1             17.0536512922      -17.3205163765      -13.6871541586  W2        509             0.0000000000
      1527       509  TIP3      H2             17.5091512922      -17.4008863765      -12.2456441586  W2        509             0.0000000000
      1528       510  TIP3      OH2             4.4517612922      -25.2705763765      -13.2446341586  W2        510             0.0000000000
      1529       510  TIP3      H1              5.1840012922      -25.0159863765      -12.6831841586  W2        510             0.0000000000
      1530       510  TIP3      H2              3.6716312922      -25.0660363765      -12.7290941586  W2        510             0.0000000000
      1531       511  TIP3      OH2            10.4810512922      -29.8635763765      -20.5066641586  W2        511             0.0000000000
      1532       511  TIP3      H1             11.0453912922      -30.4099163765      -21.0537041586  W2        511             0.0000000000
      1533       511  TIP3      H2             10.3333912922      -30.3853863765      -19.7179041586  W2        511             0.0000000000
      1534       512  TIP3      OH2             5.4830212922      -33.7269663765      -24.0881841586  W2        512             0.0000000000
      1535       512  TIP3      H1              5.1659712922      -34.6294363765      -24.1236441586  W2        512             0.0000000000
      1536       512  TIP3      H2              6.2644312922      -33.7252263765      -24.6410241586  W2        512             0.0000000000
      1537       513  TIP3      OH2             9.1076412922      -31.4749663765      -18.0926241586  W2        513             0.0000000000
      1538       513  TIP3      H1              8.2721712922      -31.0210163765      -17.9823841586  W2        513             0.0000000000
      1539       513  TIP3      H2              9.6317012922      -31.1991163765      -17.3406341586  W2        513             0.0000000000
      1540       514  TIP3      OH2             9.6519012922      -25.2621963765      -26.4079841586  W2        514             0.0000000000
      1541       514  TIP3      H1              8.9070012922      -25.7696663765      -26.7301941586  W2        514             0.0000000000
      1542       514  TIP3      H2              9.5176212922      -25.2133963765      -25.4615041586  W2        514             0.0000000000
      1543       515  TIP3      OH2            16.8017912922      -26.1293763765      -17.6212241586  W2        515             0.0000000000
      1544       515  TIP3      H1             17.4436712922      -25.6727463765      -18.1650041586  W2        515             0.0000000000
      1545       515  TIP3      H2             15.9714812922      -26.0161363765      -18.0838141586  W2        515             0.0000000000
      1546       516  TIP3      OH2            13.5495812922      -32.4482063765      -28.2087241586  W2        516             0.0000000000
      1547       516  TIP3      H1             12.6110012922      -32.3366463765      -28.3598441586  W2        516             0.0000000000
      1548       516  TIP3      H2             13.8467912922      -31.5915163765      -27.9021541586  W2        516             0.0000000000
      1549       517  TIP3      OH2            11.1711112922      -25.0778663765      -15.1710741586  W2        517             0.0000000000
      1550       517  TIP3      H1             10.8257212922      -25.4596263765      -14.3641141586  W2        517             0.0000000000
      1551       517  TIP3      H2             10.9711212922      -24.1445063765      -15.0997841586  W2        517             0.0000000000
      1552       518  TIP3      OH2            14.2679312922      -30.5809363765      -26.5479841586  W2        518             0.0000000000
      1553       518  TIP3      H1             15.1598312922      -30.7184363765      -26.2288641586  W2        518             0.0000000000
      1554       518  TIP3      H2             14.3242912922      -29.7903263765      -27.0846341586  W2        518             0.0000000000
      1555       519  TIP3      OH2             4.7767312922      -25.9671963765      -20.6381941586  W2        519             0.0000000000
      1556       519  TIP3      H1              5.5214512922      -25.9696263765      -21.2395441586  W2        519             0.0000000000
      1557       519  TIP3      H2              4.8543912922      -26.7908163765      -20.1566841586  W2        519             0.0000000000
      1558       520  TIP3      OH2            11.7773112922      -23.8037663765      -27.3825241586  W2        520             0.0000000000
      1559       520  TIP3      H1             11.4821512922      -22.9769763765      -27.0010441586  W2        520             0.0000000000
      1560       520  TIP3      H2             11.0743112922      -24.4230763765      -27.1863841586  W2        520             0.0000000000
      1561       521  TIP3      OH2             1.7847012922      -27.5065063765      -15.3233441586  W2        521             0.0000000000
      1562       521  TIP3      H1              2.0075612922      -27.9245463765      -14.4915941586  W2        521             0.0000000000
      1563       521  TIP3      H2              1.1827112922      -28.1190063765      -15.7460641586  W2        521             0.0000000000
      1564       522  TIP3      OH2             8.8011912922      -27.9895163765      -13.1103741586  W2        522             0.0000000000
      1565       522  TIP3      H1              8.5052712922      -28.1552163765      -14.0054641586  W2        522             0.0000000000
      1566       522  TIP3      H2              9.7327112922      -28.2094863765      -13.1209841586  W2        522             0.0000000000
      1567       523  TIP3      OH2            13.4214712922      -22.6163163765      -15.2205741586  W2        523             0.0000000000
      1568       523  TIP3      H1             12.5209012922      -22.4330563765      -15.4881841586  W2        523             0.0000000000
      1569       523  TIP3      H2             13.4555812922      -22.3573863765      -14.2996941586  W2        523             0.0000000000
      1570       524  TIP3      OH2            19.1528012922      -30.3715263765      -26.8533141586  W2        524             0.0000000000
      1571       524  TIP3      H1             18.5984312922      -30.7677263765      -27.5255641586  W2        524             0.0000000000
      1572       524  TIP3      H2             19.2531612922      -29.4610063765      -27.1309841586  W2        524             0.0000000000
      1573       525  TIP3      OH2            19.1160012922      -24.5713563765      -14.0161641586  W2        525             0.0000000000
      1574       525  TIP3      H1             18.2648512922      -24.3329763765      -14.3835241586  W2        525             0.0000000000
      1575       525  TIP3      H2             19.7063412922      -24.5880363765      -14.7694541586  W2        525             0.0000000000
      1576       526  TIP3      OH2            17.4479712922      -21.5854863765      -26.3881041586  W2        526             0.0000000000
      1577       526  TIP3      H1             17.0750812922      -22.4111063765      -26.0790441586  W2        526             0.0000000000
      1578       526  TIP3      H2             17.7253212922      -21.7685463765      -27.2857641586  W2        526             0.0000000000
      1579       527  TIP3      OH2            14.6083612922      -26.7775363765      -19.3669141586  W2        527             0.0000000000
      1580       527  TIP3      H1             13.6800512922      -27.0093463765      -19.3939841586  W2        527             0.0000000000
      1581       527  TIP3      H2             15.0594712922      -27.5545563765      -19.6970341586  W2        527             0.0000000000
      1582       528  TIP3      OH2             7.1516712922      -22.4493763765      -23.2340441586  W2        528             0.0000000000
      1583       528  TIP3      H1              7.6788912922      -21.6759363765      -23.4341641586  W2        528             0.0000000000
      1584       528  TIP3      H2              6.2715212922      -22.2244563765      -23.5356441586  W2        528             0.0000000000
      1585       529  TIP3      OH2             2.9064412922      -27.5869663765      -28.6468041586  W2        529             0.0000000000
      1586       529  TIP3      H1              3.5224312922      -26.9602463765      -28.2673241586  W2        529             0.0000000000
      1587       529  TIP3      H2              2.0447012922      -27.2709863765      -28.3751541586  W2        529             0.0000000000
      1588       530  TIP3      OH2             8.5789012922      -24.7863863765      -23.6576141586  W2        530             0.0000000000
      1589       530  TIP3      H1              8.3379012922      -23.8609463765      -23.6160841586  W2        530             0.0000000000
      1590       530  TIP3      H2              7.8382612922      -25.2452563765      -23.2612241586  W2        530             0.0000000000
      1591       531  TIP3      OH2             9.0935612922      -20.6370263765      -17.3425041586  W2        531             0.0000000000
      1592       531  TIP3      H1              9.4560312922      -19.7824663765      -17.5760641586  W2        531             0.0000000000
      1593       531  TIP3      H2              9.6250812922      -20.9288663765      -16.6018741586  W2        531             0.0000000000
      1594       532  TIP3      OH2             7.2619812922      -19.7646263765      -24.1123941586  W2        532             0.0000000000
      1595       532  TIP3      H1              6.3120312922      -19.6588863765      -24.0610641586  W2        532             0.0000000000
      1596       532  TIP3      H2              7.6137912922      -18.9438863765      -23.7676441586  W2        532             0.0000000000
      1597       533  TIP3      OH2            12.6376412922      -24.5379563765      -17.6419441586  W2        533             0.0000000000
      1598       533  TIP3      H1             12.2117712922      -24.7657863765      -16.8155441586  W2        533             0.0000000000
      1599       533  TIP3      H2             13.2182212922      -25.2767763765      -17.8244141586  W2        533             0.0000000000
      1600       534  TIP3      OH2            14.8405312922      -23.6089063765      -28.5680441586  W2        534             0.0000000000
      1601       534  TIP3      H1             15.1938412922      -23.9889263765      -27.7636941586  W2        534             0.0000000000
      1602       534  TIP3      H2             13.8918812922      -23.7024263765      -28.4811141586  W2        534             0.0000000000
      1603       535  TIP3      OH2            15.2960612922      -19.9860063765      -15.1724641586  W2        535             0.0000000000
      1604       535  TIP3      H1             14.6943812922      -20.5417163765      -15.6678341586  W2        535             0.0000000000
      1605       535  TIP3      H2             15.5774312922      -19.3190263765      -15.7987241586  W2        535             0.0000000000
      1606       536  TIP3      OH2            19.3439712922      -19.1296563765      -28.3670241586  W2        536             0.0000000000
      1607       536  TIP3      H1             20.0877612922      -18.5436063765      -28.5068641586  W2        536             0.0000000000
      1608       536  TIP3      H2             18.6497812922      -18.5610763765      -28.0337841586  W2        536             0.0000000000
      1609       537  TIP3      OH2             3.4186512922      -32.7532363765      -15.7652041586  W2        537             0.0000000000
      1610       537  TIP3      H1              2.5258812922      -32.4146963765      -15.8328041586  W2        537             0.0000000000
      1611       537  TIP3      H2              3.3199312922      -33.6086263765      -15.3471241586  W2        537             0.0000000000
      1612       538  TIP3      OH2            15.7064612922      -24.9367063765      -26.3412541586  W2        538             0.0000000000
      1613       538  TIP3      H1             15.4292212922      -25.6647763765      -25.7851441586  W2        538             0.0000000000
      1614       538  TIP3      H2             16.6337612922      -24.8175063765      -26.1359941586  W2        538             0.0000000000
      1615       539  TIP3      OH2             3.0698512922      -20.9487963765      -17.3302641586  W2        539             0.0000000000
      1616       539  TIP3      H1              3.2868812922      -21.8805563765      -17.3612941586  W2        539             0.0000000000
      1617       539  TIP3      H2              3.3162012922      -20.6742963765      -16.4469841586  W2        539             0.0000000000
      1618       540  TIP3      OH2             8.9313112922      -22.4972963765      -30.1210441586  W2        540             0.0000000000
      1619       540  TIP3      H1              9.1702912922      -23.2454863765      -30.6681541586  W2        540             0.0000000000
      1620       540  TIP3      H2              8.6624412922      -22.8851263765      -29.2882641586  W2        540             0.0000000000
      1621       541  TIP3      OH2             7.8683712922      -22.9269163765      -27.6647841586  W2        541             0.0000000000
      1622       541  TIP3      H1              8.0151712922      -23.4469363765      -26.8746941586  W2        541             0.0000000000
      1623       541  TIP3      H2              7.8655412922      -22.0201563765      -27.3581941586  W2        541             0.0000000000
      1624       542  TIP3      OH2             4.3214812922      -25.6745863765      -27.1542441586  W2        542             0.0000000000
      1625       542  TIP3      H1              3.6354112922      -25.3223363765      -26.5872741586  W2        542             0.0000000000
      1626       542  TIP3      H2              4.8442712922      -24.9116263765      -27.4008141586  W2        542             0.0000000000
      1627       543  TIP3      OH2            12.1529912922      -33.0122063765      -16.8753441586  W2        543             0.0000000000
      1628       543  TIP3      H1             12.8517812922      -32.9383363765      -16.2253741586  W2        543             0.0000000000
      1629       543  TIP3      H2             11.7721312922      -33.8767063765      -16.7210541586  W2        543             0.0000000000
      1630       544  TIP3      OH2            12.9374812922      -33.3600363765      -25.7781141586  W2        544             0.0000000000
      1631       544  TIP3      H1             13.1573112922      -32.8884963765      -26.5815741586  W2        544             0.0000000000
      1632       544  TIP3      H2             13.4958812922      -32.9657763765      -25.1080541586  W2        544             0.0000000000
      1633       545  TIP3      OH2            10.6060912922      -21.2295563765      -26.9153641586  W2        545             0.0000000000
      1634       545  TIP3      H1              9.7897012922      -20.7325863765      -26.8629341586  W2        545             0.0000000000
      1635       545  TIP3      H2             11.1357212922      -20.7542063765      -27.5554841586  W2        545             0.0000000000
      1636       546  TIP3      OH2            10.1374712922      -31.6321563765      -24.9432741586  W2        546             0.0000000000
      1637       546  TIP3      H1             10.9497312922      -31.1278363765      -24.8971041586  W2        546             0.0000000000
      1638       546  TIP3      H2              9.8927712922      -31.7771863765      -24.0293141586  W2        546             0.0000000000
      1639       547  TIP3      OH2            10.6731112922      -30.6458863765      -15.7586141586  W2        547             0.0000000000
      1640       547  TIP3      H1             10.7921412922      -30.0723463765      -15.0015741586  W2        547             0.0000000000
      1641       547  TIP3      H2             11.3285712922      -31.3339463765      -15.6438341586  W2        547             0.0000000000
      1642       548  TIP3      OH2            11.0211412922      -34.5508563765      -24.0051641586  W2        548             0.0000000000
      1643       548  TIP3      H1             10.6744912922      -33.9337963765      -23.3607341586  W2        548             0.0000000000
      1644       548  TIP3      H2             11.6798312922      -34.0502863765      -24.4866141586  W2        548             0.0000000000
      1645       549  TIP3      OH2             7.9444012922      -20.1858363765      -26.9336741586  W2        549             0.0000000000
      1646       549  TIP3      H1              8.1052712922      -19.3860863765      -27.4344141586  W2        549             0.0000000000
      1647       549  TIP3      H2              7.7471812922      -19.8792363765      -26.0486141586  W2        549             0.0000000000
      1648       550  TIP3      OH2             6.6788412922      -33.4879163765      -27.3179141586  W2        550             0.0000000000
      1649       550  TIP3      H1              6.5953212922      -32.5996063765      -26.9712741586  W2        550             0.0000000000
      1650       550  TIP3      H2              7.5688712922      -33.7532463765      -27.0862341586  W2        550             0.0000000000
      1651       551  TIP3      OH2            16.8776912922      -32.7388563765      -14.9236441586  W2        551             0.0000000000
      1652       551  TIP3      H1             15.9612712922      -32.4766863765      -15.0112741586  W2        551             0.0000000000
      1653       551  TIP3      H2             17.2131912922      -32.7419563765      -15.8201141586  W2        551             0.0000000000
      1654       552  TIP3      OH2            15.4797912922      -28.9887563765      -20.8279141586  W2        552             0.0000000000
      1655       552  TIP3      H1             14.6822312922      -29.4037363765      -21.1564141586  W2        552             0.0000000000
      1656       552  TIP3      H2             15.9249012922      -29.6793863765      -20.3368641586  W2        552             0.0000000000
      1657       553  TIP3      OH2             4.9373712922      -23.0606963765      -28.2574641586  W2        553             0.0000000000
      1658       553  TIP3      H1              5.5295212922      -22.3612163765      -27.9812241586  W2        553             0.0000000000
      1659       553  TIP3      H2              5.3966712922      -23.4937463765      -28.9770041586  W2        553             0.0000000000
      1660       554  TIP3      OH2             3.2532912922      -30.3963963765      -29.1415241586  W2        554             0.0000000000
      1661       554  TIP3      H1              3.2085512922      -29.4570863765      -28.9628241586  W2        554             0.0000000000
      1662       554  TIP3      H2              2.3656112922      -30.6319063765      -29.4113141586  W2        554             0.0000000000
      1663       555  TIP3      OH2            16.5662512922      -19.7325063765      -19.2055641586  W2        555             0.0000000000
      1664       555  TIP3      H1             16.4106812922      -19.0540663765      -19.8626341586  W2        555             0.0000000000
      1665       555  TIP3      H2             17.4988912922      -19.6605763765      -19.0025041586  W2        555             0.0000000000
      1666       556  TIP3      OH2             4.0614912922      -35.6147363765      -20.4684241586  W2        556             0.0000000000
      1667       556  TIP3      H1              3.8324712922      -35.5554863765      -21.3959241586  W2        556             0.0000000000
      1668       556  TIP3      H2              3.6188312922      -36.4061863765      -20.1620141586  W2        556             0.0000000000
      1669       557  TIP3      OH2             2.9918212922      -21.6740263765      -24.3078441586  W2        557             0.0000000000
      1670       557  TIP3      H1              2.1596812922      -21.2017563765      -24.2807041586  W2        557             0.0000000000
      1671       557  TIP3      H2              3.5376512922      -21.1642663765      -24.9065341586  W2        557             0.0000000000
      1672       558  TIP3      OH2             2.2801912922      -19.0616563765      -12.9780441586  W2        558             0.0000000000
      1673       558  TIP3      H1              2.8204112922      -19.2782563765      -12.2181241586  W2        558             0.0000000000
      1674       558  TIP3      H2              1.7989912922      -19.8670563765      -13.1677941586  W2        558             0.0000000000
      1675       559  TIP3      OH2             6.8775312922      -20.1422163765      -11.3576241586  W2        559             0.0000000000
      1676       559  TIP3      H1              7.6452512922      -20.6011363765      -11.0167041586  W2        559             0.0000000000
      1677       559  TIP3      H2              6.8561512922      -20.3682363765      -12.2875041586  W2        559             0.0000000000
      1678       560  TIP3      OH2            10.9694912922      -20.6341563765      -29.9824441586  W2        560             0.0000000000
      1679       560  TIP3      H1             10.3255912922      -21.2652963765      -29.6610741586  W2        560             0.0000000000
      1680       560  TIP3      H2             11.7313212922      -21.1653563765      -30.2140941586  W2        560             0.0000000000
      1681       561  TIP3      OH2            13.4544012922      -21.7621063765      -12.6284741586  W2        561             0.0000000000
      1682       561  TIP3      H1             13.1033512922      -22.6188063765      -12.3854341586  W2        561             0.0000000000
      1683       561  TIP3      H2             14.1807212922      -21.6194363765      -12.0215741586  W2        561             0.0000000000
      1684       562  TIP3      OH2            15.5737812922      -20.8171663765      -29.7486441586  W2        562             0.0000000000
      1685       562  TIP3      H1             15.8568212922      -21.6116463765      -29.2959541586  W2        562             0.0000000000
      1686       562  TIP3      H2             16.3135712922      -20.5840663765      -30.3095341586  W2        562             0.0000000000
      1687       563  TIP3      OH2             2.1871412922      -25.2512463765      -12.0236141586  W2        563             0.0000000000
      1688       563  TIP3      H1              2.3311912922      -26.1531763765      -12.3099441586  W2        563             0.0000000000
      1689       563  TIP3      H2              1.4148812922      -24.9650363765      -12.5113841586  W2        563             0.0000000000
      1690       564  TIP3      OH2             6.5285112922      -24.9076763765      -29.8911541586  W2        564             0.0000000000
      1691       564  TIP3      H1              6.5929212922      -25.7017163765      -29.3605141586  W2        564             0.0000000000
      1692       564  TIP3      H2              7.1814312922      -25.0263963765      -30.5809541586  W2        564             0.0000000000
      1693       565  TIP3      OH2             8.8427512922      -25.2814363765      -12.5909741586  W2        565             0.0000000000
      1694       565  TIP3      H1              8.5141312922      -25.0106263765      -13.4482341586  W2        565             0.0000000000
      1695       565  TIP3      H2              8.9945712922      -26.2224563765      -12.6784741586  W2        565             0.0000000000
      1696       566  TIP3      OH2            11.8808512922      -23.8605063765      -30.1553541586  W2        566             0.0000000000
      1697       566  TIP3      H1             11.6122612922      -23.6802963765      -29.2544641586  W2        566             0.0000000000
      1698       566  TIP3      H2             11.6744112922      -24.7858863765      -30.2867741586  W2        566             0.0000000000
      1699       567  TIP3      OH2            14.5772712922      -25.3657063765      -15.2077441586  W2        567             0.0000000000
      1700       567  TIP3      H1             15.3227512922      -24.7773363765      -15.3273441586  W2        567             0.0000000000
      1701       567  TIP3      H2             13.8199512922      -24.7837363765      -15.1444341586  W2        567             0.0000000000
      1702       568  TIP3      OH2             3.0197912922      -28.0509163765      -12.6036841586  W2        568             0.0000000000
      1703       568  TIP3      H1              3.4279112922      -28.9082563765      -12.7246241586  W2        568             0.0000000000
      1704       568  TIP3      H2              2.7595512922      -28.0367863765      -11.6826541586  W2        568             0.0000000000
      1705       569  TIP3      OH2             7.6778912922      -26.9350563765      -27.5853541586  W2        569             0.0000000000
      1706       569  TIP3      H1              7.2180912922      -27.4192263765      -26.8995041586  W2        569             0.0000000000
      1707       569  TIP3      H2              7.9327612922      -27.6035163765      -28.2213041586  W2        569             0.0000000000
      1708       570  TIP3      OH2             6.9668212922      -29.0423463765      -15.2293941586  W2        570             0.0000000000
      1709       570  TIP3      H1              6.3484312922      -28.3676863765      -14.9489241586  W2        570             0.0000000000
      1710       570  TIP3      H2              7.3109412922      -28.7209563765      -16.0627741586  W2        570             0.0000000000
      1711       571  TIP3      OH2             8.7489312922      -28.6918763765      -29.3230341586  W2        571             0.0000000000
      1712       571  TIP3      H1              8.5684312922      -28.8467563765      -30.2502041586  W2        571             0.0000000000
      1713       571  TIP3      H2              9.6989812922      -28.5840063765      -29.2782441586  W2        571             0.0000000000
      1714       572  TIP3      OH2            11.9866412922      -26.5708163765      -11.9519141586  W2        572             0.0000000000
      1715       572  TIP3      H1             12.9397612922      -26.4869063765      -11.9793141586  W2        572             0.0000000000
      1716       572  TIP3      H2             11.8261012922      -27.2826363765      -11.3324241586  W2        572             0.0000000000
      1717       573  TIP3      OH2            18.1387612922      -26.3374563765      -29.8772241586  W2        573             0.0000000000
      1718       573  TIP3      H1             17.8652412922      -26.7619063765      -30.6903941586  W2        573             0.0000000000
      1719       573  TIP3      H2             18.1781712922      -25.4060063765      -30.0941841586  W2        573             0.0000000000
      1720       574  TIP3      OH2             7.3061912922      -31.6872663765      -14.1470841586  W2        574             0.0000000000
      1721       574  TIP3      H1              7.4562812922      -32.4161363765      -14.7491141586  W2        574             0.0000000000
      1722       574  TIP3      H2              7.3084312922      -30.9100963765      -14.7058641586  W2        574             0.0000000000
      1723       575  TIP3      OH2             7.7187612922      -33.3176863765      -16.6543441586  W2        575             0.0000000000
      1724       575  TIP3      H1              8.2545112922      -32.8660163765      -17.3064141586  W2        575             0.0000000000
      1725       575  TIP3      H2              6.8667212922      -33.4257063765      -17.0769341586  W2        575             0.0000000000
      1726       576  TIP3      OH2             9.3006012922      -27.8780663765      -16.4148241586  W2        576             0.0000000000
      1727       576  TIP3      H1             10.0510812922      -28.0343163765      -16.9880441586  W2        576             0.0000000000
      1728       576  TIP3      H2              8.9614312922      -27.0264063765      -16.6902741586  W2        576             0.0000000000
      1729       577  TIP3      OH2            13.7162212922      -30.0628863765      -11.3862941586  W2        577             0.0000000000
      1730       577  TIP3      H1             13.9083512922      -30.9939463765      -11.4978441586  W2        577             0.0000000000
      1731       577  TIP3      H2             14.5738512922      -29.6379363765      -11.3967541586  W2        577             0.0000000000
      1732       578  TIP3      OH2            15.0329412922      -27.2743663765      -13.3090241586  W2        578             0.0000000000
      1733       578  TIP3      H1             14.7514412922      -26.5649063765      -13.8866441586  W2        578             0.0000000000
      1734       578  TIP3      H2             15.9753712922      -27.3470663765      -13.4599041586  W2        578             0.0000000000
      1735       579  TIP3      OH2             5.7848212922      -30.4889163765      -12.2355241586  W2        579             0.0000000000
      1736       579  TIP3      H1              5.0177212922      -31.0214363765      -12.4457641586  W2        579             0.0000000000
      1737       579  TIP3      H2              6.4637212922      -30.7988763765      -12.8348941586  W2        579             0.0000000000
      1738       580  TIP3      OH2             8.5243112922      -35.8611163765      -16.2229841586  W2        580             0.0000000000
      1739       580  TIP3      H1              8.4262712922      -34.9147963765      -16.3283641586  W2        580             0.0000000000
      1740       580  TIP3      H2              7.7819312922      -36.2337363765      -16.6986341586  W2        580             0.0000000000
      1741       581  TIP3      OH2             9.7883612922      -31.5395763765      -12.6591441586  W2        581             0.0000000000
      1742       581  TIP3      H1              9.5529012922      -31.7589063765      -11.7576541586  W2        581             0.0000000000
      1743       581  TIP3      H2              9.0050512922      -31.7464563765      -13.1688941586  W2        581             0.0000000000
      1744       582  TIP3      OH2            12.5040212922      -32.4122263765      -13.5837941586  W2        582             0.0000000000
      1745       582  TIP3      H1             11.5565612922      -32.3802563765      -13.4514641586  W2        582             0.0000000000
      1746       582  TIP3      H2             12.8166912922      -33.0375163765      -12.9299741586  W2        582             0.0000000000
      1747       583  TIP3      OH2            14.1381712922      -33.7781163765      -11.5786041586  W2        583             0.0000000000
      1748       583  TIP3      H1             14.0413512922      -34.7303863765      -11.5844141586  W2        583             0.0000000000
      1749       583  TIP3      H2             13.8164812922      -33.5094363765      -10.7180541586  W2        583             0.0000000000
      1750       584  TIP3      OH2             3.9651012922      -32.5685363765      -12.5310541586  W2        584             0.0000000000
      1751       584  TIP3      H1              4.1768412922      -33.2749263765      -13.1413041586  W2        584             0.0000000000
      1752       584  TIP3      H2              3.8538512922      -33.0059363765      -11.6869341586  W2        584             0.0000000000
      1753       585  TIP3      OH2             8.7461212922      -36.5673763765      -13.5517041586  W2        585             0.0000000000
      1754       585  TIP3      H1              9.4579612922      -37.2071563765      -13.5657941586  W2        585             0.0000000000
      1755       585  TIP3      H2              8.6451612922      -36.3005463765      -14.4653941586  W2        585             0.0000000000
      1756       586  TIP3      OH2             9.0998712922      -34.8845363765      -11.4980741586  W2        586             0.0000000000
      1757       586  TIP3      H1              8.9680912922      -35.3601563765      -12.3182241586  W2        586             0.0000000000
      1758       586  TIP3      H2              8.5006112922      -34.1401763765      -11.5533641586  W2        586             0.0000000000
      1759       587  TIP3      OH2             8.6461012922      -18.0015063765      -28.3216741586  W2        587             0.0000000000
      1760       587  TIP3      H1              9.5791712922      -17.8436363765      -28.1778341586  W2        587             0.0000000000
      1761       587  TIP3      H2              8.3819812922      -17.3262063765      -28.9465241586  W2        587             0.0000000000
      1762       588  TIP3      OH2             2.2145912922      -23.3651263765      -28.8388641586  W2        588             0.0000000000
      1763       588  TIP3      H1              3.1285112922      -23.2862363765      -28.5654741586  W2        588             0.0000000000
      1764       588  TIP3      H2              2.2219012922      -24.0521663765      -29.5053041586  W2        588             0.0000000000
      1765       589  TIP3      OH2             0.8636512922      -17.9722763765      -23.7614741586  W2        589             0.0000000000
      1766       589  TIP3      H1              0.2163612922      -18.4341063765      -24.2943541586  W2        589             0.0000000000
      1767       589  TIP3      H2              1.2181112922      -18.6439463765      -23.1788541586  W2        589             0.0000000000
      1768       590  TIP3      OH2             1.7335712922      -19.8915763765      -21.9568541586  W2        590             0.0000000000
      1769       590  TIP3      H1              1.3992512922      -20.7718463765      -21.7848341586  W2        590             0.0000000000
      1770       590  TIP3      H2              1.9558112922      -19.5460763765      -21.0922941586  W2        590             0.0000000000
      1771       591  TIP3      OH2            19.2820512922      -19.0819363765      -18.9763741586  W2        591             0.0000000000
      1772       591  TIP3      H1             19.2607212922      -18.8970963765      -18.0374341586  W2        591             0.0000000000
      1773       591  TIP3      H2             19.9726712922      -18.5135363765      -19.3172341586  W2        591             0.0000000000
      1774       592  TIP3      OH2            18.8453412922      -19.5148263765      -16.0544641586  W2        592             0.0000000000
      1775       592  TIP3      H1             18.3582112922      -20.2504163765      -16.4257241586  W2        592             0.0000000000
      1776       592  TIP3      H2             19.3946112922      -19.9084363765      -15.3765241586  W2        592             0.0000000000
      1777       593  TIP3      OH2            17.2960712922      -23.7250163765      -11.4164341586  W2        593             0.0000000000
      1778       593  TIP3      H1             16.4301812922      -23.8300463765      -11.0222041586  W2        593             0.0000000000
      1779       593  TIP3      H2             17.6726612922      -22.9666863765      -10.9699641586  W2        593             0.0000000000
      1780       594  TIP3      OH2            18.5970412922      -25.4686463765      -25.9021841586  W2        594             0.0000000000
      1781       594  TIP3      H1             19.4471812922      -25.0475563765      -25.7750241586  W2        594             0.0000000000
      1782       594  TIP3      H2             18.6025512922      -26.2086363765      -25.2950441586  W2        594             0.0000000000
      1783       595  TIP3      OH2            18.9916012922      -27.4149063765      -24.0786141586  W2        595             0.0000000000
      1784       595  TIP3      H1             18.2650612922      -27.8946463765      -23.6808541586  W2        595             0.0000000000
      1785       595  TIP3      H2             19.5729312922      -27.2094363765      -23.3464541586  W2        595             0.0000000000
      1786       596  TIP3      OH2            18.7507212922      -24.6301563765      -19.1308541586  W2        596             0.0000000000
      1787       596  TIP3      H1             19.5841412922      -25.0081563765      -19.4114941586  W2        596             0.0000000000
      1788       596  TIP3      H2             18.8627512922      -23.6870363765      -19.2499441586  W2        596             0.0000000000
      1789       597  TIP3      OH2            17.2369512922      -21.7524063765      -16.8240141586  W2        597             0.0000000000
      1790       597  TIP3      H1             16.5894812922      -21.4272563765      -16.1984941586  W2        597             0.0000000000
      1791       597  TIP3      H2             16.7193512922      -22.1926363765      -17.4981841586  W2        597             0.0000000000
      1792       598  TIP3      OH2            19.2599112922      -27.5140563765      -27.6874841586  W2        598             0.0000000000
      1793       598  TIP3      H1             18.7380212922      -27.1576463765      -28.4063941586  W2        598             0.0000000000
      1794       598  TIP3      H2             19.2268312922      -26.8392763765      -27.0093941586  W2        598             0.0000000000
      1795       599  TIP3      OH2            17.6088112922      -30.2744963765      -29.1367741586  W2        599             0.0000000000
      1796       599  TIP3      H1             17.7052512922      -29.6077963765      -29.8168041586  W2        599             0.0000000000
      1797       599  TIP3      H2             17.4687712922      -31.0898663765      -29.6182241586  W2        599             0.0000000000
      1798       600  TIP3      OH2            16.7782812922      -28.8942563765      -23.5157441586  W2        600             0.0000000000
      1799       600  TIP3      H1             16.6281612922      -29.8393963765      -23.5359641586  W2        600             0.0000000000
      1800       600  TIP3      H2             16.4247312922      -28.6131163765      -22.6718341586  W2        600             0.0000000000
      1801       601  TIP3      OH2             1.8135212922      -26.8160363765      -19.5053641586  W2        601             0.0000000000
      1802       601  TIP3      H1              1.9978112922      -26.8978663765      -20.4410741586  W2        601             0.0000000000
      1803       601  TIP3      H2              2.6628112922      -26.9403363765      -19.0817241586  W2        601             0.0000000000
      1804       602  TIP3      OH2            17.6345712922      -26.9239263765      -13.8769141586  W2        602             0.0000000000
      1805       602  TIP3      H1             18.2173012922      -27.6586963765      -13.6851941586  W2        602             0.0000000000
      1806       602  TIP3      H2             18.1985012922      -26.1518963765      -13.8303341586  W2        602             0.0000000000
      1807       603  TIP3      OH2            19.1312812922      -29.0213463765      -13.1923741586  W2        603             0.0000000000
      1808       603  TIP3      H1             18.2679512922      -29.4001363765      -13.3579041586  W2        603             0.0000000000
      1809       603  TIP3      H2             19.7356512922      -29.7598663765      -13.2667941586  W2        603             0.0000000000
      1810       604  TIP3      OH2            16.8561912922      -32.8665163765      -30.0192241586  W2        604             0.0000000000
      1811       604  TIP3      H1             17.4667712922      -33.2378363765      -29.3824041586  W2        604             0.0000000000
      1812       604  TIP3      H2             16.0193412922      -33.2878263765      -29.8232241586  W2        604             0.0000000000
      1813       605  TIP3      OH2            16.4887612922      -31.3116763765      -25.0532341586  W2        605             0.0000000000
      1814       605  TIP3      H1             16.7684712922      -32.2186363765      -24.9290641586  W2        605             0.0000000000
      1815       605  TIP3      H2             17.2479312922      -30.8775263765      -25.4423141586  W2        605             0.0000000000
      1816       606  TIP3      OH2            17.1005912922      -30.7299363765      -19.6173441586  W2        606             0.0000000000
      1817       606  TIP3      H1             18.0333912922      -30.5179463765      -19.6517441586  W2        606             0.0000000000
      1818       606  TIP3      H2             16.8653412922      -30.6287263765      -18.6950441586  W2        606             0.0000000000
      1819       607  TIP3      OH2            17.1297812922      -29.9934063765      -16.8414041586  W2        607             0.0000000000
      1820       607  TIP3      H1             16.2869112922      -29.7253663765      -16.4754241586  W2        607             0.0000000000
      1821       607  TIP3      H2             17.5722112922      -29.1712163765      -17.0522941586  W2        607             0.0000000000
      1822       608  TIP3      OH2             1.4110012922      -31.5455363765      -13.3644841586  W2        608             0.0000000000
      1823       608  TIP3      H1              2.3304912922      -31.6677063765      -13.1281741586  W2        608             0.0000000000
      1824       608  TIP3      H2              0.9614512922      -32.2955663765      -12.9751341586  W2        608             0.0000000000
      1825       609  TIP3      OH2            19.4129412922      -36.0133863765      -11.4879041586  W2        609             0.0000000000
      1826       609  TIP3      H1             19.7626412922      -36.6670363765      -12.0934341586  W2        609             0.0000000000
      1827       609  TIP3      H2             19.5598912922      -35.1759763765      -11.9276441586  W2        609             0.0000000000
      1828       610  TIP3      OH2            17.1022412922      -34.0487463765      -25.0050341586  W2        610             0.0000000000
      1829       610  TIP3      H1             17.2847412922      -34.4975963765      -24.1795341586  W2        610             0.0000000000
      1830       610  TIP3      H2             16.5025312922      -34.6333063765      -25.4685741586  W2        610             0.0000000000
      1831       611  TIP3      OH2             2.6322512922      -33.2333763765      -20.4731941586  W2        611             0.0000000000
      1832       611  TIP3      H1              3.0774112922      -34.0251263765      -20.1712241586  W2        611             0.0000000000
      1833       611  TIP3      H2              3.0985512922      -32.5168563765      -20.0426341586  W2        611             0.0000000000
      1834       612  TIP3      OH2             0.9362812922      -30.2340763765      -19.4041741586  W2        612             0.0000000000
      1835       612  TIP3      H1              1.4282612922      -30.4550263765      -20.1949741586  W2        612             0.0000000000
      1836       612  TIP3      H2              1.2983712922      -29.3937363765      -19.1232241586  W2        612             0.0000000000
      1837       613  TIP3      OH2            18.9326612922      -33.9039263765      -13.1387741586  W2        613             0.0000000000
      1838       613  TIP3      H1             18.0152312922      -33.6332163765      -13.1744241586  W2        613             0.0000000000
      1839       613  TIP3      H2             19.0556012922      -34.4390863765      -13.9228041586  W2        613             0.0000000000
      1840       614  TIP3      OH2            18.9688612922      -33.9809363765      -28.4770041586  W2        614             0.0000000000
      1841       614  TIP3      H1             19.3811212922      -34.7023663765      -28.9522041586  W2        614             0.0000000000
      1842       614  TIP3      H2             19.6505112922      -33.3114763765      -28.4185741586  W2        614             0.0000000000
      1843       615  TIP3      OH2             1.2499312922      -33.9761663765      -25.3499341586  W2        615             0.0000000000
      1844       615  TIP3      H1              0.3247712922      -33.7675063765      -25.4793841586  W2        615             0.0000000000
      1845       615  TIP3      H2              1.7039212922      -33.4920863765      -26.0397041586  W2        615             0.0000000000
      1846       616  TIP3      OH2            16.0206512922      -18.9919963765      -23.4041941586  W2        616             0.0000000000
      1847       616  TIP3      H1             16.6729412922      -19.3397863765      -24.0122841586  W2        616             0.0000000000
      1848       616  TIP3      H2             16.5310312922      -18.5036763765      -22.7582241586  W2        616             0.0000000000
      1849       617  TIP3      OH2             1.2134712922      -35.2382663765      -17.0056841586  W2        617             0.0000000000
      1850       617  TIP3      H1              0.5485212922      -35.4842363765      -16.3625941586  W2        617             0.0000000000
      1851       617  TIP3      H2              0.7706012922      -34.6162263765      -17.5828841586  W2        617             0.0000000000
      1852       618  TIP3      OH2             3.4054012922      -22.0628563765      -12.8611041586  W2        618             0.0000000000
      1853       618  TIP3      H1              2.5846512922      -21.8882063765      -13.3216341586  W2        618             0.0000000000
      1854       618  TIP3      H2              3.1531812922      -22.1363863765      -11.9406641586  W2        618             0.0000000000
      1855       619  TIP3      OH2             6.3596912922      -21.0887363765      -16.6027041586  W2        619             0.0000000000
      1856       619  TIP3      H1              5.9348012922      -20.2788863765      -16.8852441586  W2        619             0.0000000000
      1857       619  TIP3      H2              7.2639712922      -21.0033263765      -16.9047241586  W2        619             0.0000000000
      1858       620  TIP3      OH2            10.6708312922      -19.6897363765      -13.6433341586  W2        620             0.0000000000
      1859       620  TIP3      H1             10.8555812922      -20.0231263765      -12.7653041586  W2        620             0.0000000000
      1860       620  TIP3      H2             11.5172812922      -19.3798763765      -13.9654141586  W2        620             0.0000000000
      1861       621  TIP3      OH2            13.0158712922      -18.4038463765      -14.3991941586  W2        621             0.0000000000
      1862       621  TIP3      H1             13.6927612922      -19.0366163765      -14.6392741586  W2        621             0.0000000000
      1863       621  TIP3      H2             13.3377512922      -18.0027963765      -13.5918641586  W2        621             0.0000000000
      1864       622  TIP3      OH2            17.9332512922      -35.8142963765      -15.3196941586  W2        622             0.0000000000
      1865       622  TIP3      H1             17.1206012922      -35.4892663765      -15.7072241586  W2        622             0.0000000000
      1866       622  TIP3      H2             18.1661012922      -36.5744463765      -15.8527841586  W2        622             0.0000000000
      1867       623  TIP3      OH2             3.7613612922      -17.8323463765      -16.5551741586  W2        623             0.0000000000
      1868       623  TIP3      H1              3.0410012922      -17.3922463765      -17.0064041586  W2        623             0.0000000000
      1869       623  TIP3      H2              3.3957612922      -18.0828763765      -15.7067741586  W2        623             0.0000000000
      1870       624  TIP3      OH2             6.2286212922      -18.2319563765      -17.5254541586  W2        624             0.0000000000
      1871       624  TIP3      H1              5.3638412922      -18.1601063765      -17.1214441586  W2        624             0.0000000000
      1872       624  TIP3      H2              6.1735212922      -17.6852263765      -18.3092041586  W2        624             0.0000000000
      1873       625  TIP3      OH2            10.9391812922      -18.3440663765      -18.3498541586  W2        625             0.0000000000
      1874       625  TIP3      H1             10.4825812922      -17.8150963765      -19.0040141586  W2        625             0.0000000000
      1875       625  TIP3      H2             11.1019812922      -17.7409263765      -17.6246241586  W2        625             0.0000000000
      1876       626  TIP3      OH2            13.2668112922      -19.4661063765      -17.4048241586  W2        626             0.0000000000
      1877       626  TIP3      H1             12.3621812922      -19.3010863765      -17.6706141586  W2        626             0.0000000000
      1878       626  TIP3      H2             13.6956712922      -18.6128863765      -17.4704841586  W2        626             0.0000000000
      1879       627  TIP3      OH2            15.8710012922      -17.8961963765      -17.1100441586  W2        627             0.0000000000
      1880       627  TIP3      H1             15.6892012922      -16.9803063765      -17.3205541586  W2        627             0.0000000000
      1881       627  TIP3      H2             16.0477812922      -18.3064863765      -17.9565841586  W2        627             0.0000000000
      1882       628  TIP3      OH2             3.1761712922      -19.2090963765      -19.6449941586  W2        628             0.0000000000
      1883       628  TIP3      H1              3.1577712922      -19.6345863765      -18.7877641586  W2        628             0.0000000000
      1884       628  TIP3      H2              3.9809612922      -19.5275963765      -20.0537741586  W2        628             0.0000000000
      1885       629  TIP3      OH2             5.3174812922      -20.4992263765      -20.9900041586  W2        629             0.0000000000
      1886       629  TIP3      H1              5.0985512922      -21.4154863765      -20.8204041586  W2        629             0.0000000000
      1887       629  TIP3      H2              6.1417012922      -20.3591863765      -20.5238641586  W2        629             0.0000000000
      1888       630  TIP3      OH2             7.8547312922      -20.0292963765      -20.1412041586  W2        630             0.0000000000
      1889       630  TIP3      H1              8.0673012922      -20.9173963765      -20.4281141586  W2        630             0.0000000000
      1890       630  TIP3      H2              7.9192412922      -20.0635263765      -19.1868041586  W2        630             0.0000000000
      1891       631  TIP3      OH2            11.3631012922      -34.3652363765      -20.9968741586  W2        631             0.0000000000
      1892       631  TIP3      H1             10.6887812922      -34.9946763765      -20.7412941586  W2        631             0.0000000000
      1893       631  TIP3      H2             11.9270212922      -34.8493463765      -21.6000841586  W2        631             0.0000000000
      1894       632  TIP3      OH2            16.5058212922      -36.2578363765      -20.8841641586  W2        632             0.0000000000
      1895       632  TIP3      H1             17.1095812922      -35.7102963765      -21.3860641586  W2        632             0.0000000000
      1896       632  TIP3      H2             15.6360212922      -35.9387963765      -21.1247541586  W2        632             0.0000000000
      1897       633  TIP3      OH2            18.2328612922      -35.1189663765      -22.5510741586  W2        633             0.0000000000
      1898       633  TIP3      H1             18.8446112922      -35.6333963765      -23.0777141586  W2        633             0.0000000000
      1899       633  TIP3      H2             18.6152012922      -34.2417563765      -22.5276341586  W2        633             0.0000000000
      1900       634  TIP3      OH2             3.6898512922      -35.7312063765      -23.1748841586  W2        634             0.0000000000
      1901       634  TIP3      H1              2.9128312922      -35.9657163765      -23.6822941586  W2        634             0.0000000000
      1902       634  TIP3      H2              4.2202112922      -36.5279963765      -23.1660841586  W2        634             0.0000000000
      1903       635  TIP3      OH2             2.5261912922      -35.9333963765      -27.3712741586  W2        635             0.0000000000
      1904       635  TIP3      H1              2.9652612922      -35.3223463765      -27.9629241586  W2        635             0.0000000000
      1905       635  TIP3      H2              1.8924312922      -35.3949863765      -26.8972741586  W2        635             0.0000000000
      1906       636  TIP3      OH2             8.2691112922      -35.8044963765      -23.3615741586  W2        636             0.0000000000
      1907       636  TIP3      H1              9.1434512922      -35.4160663765      -23.3911441586  W2        636             0.0000000000
      1908       636  TIP3      H2              8.1331912922      -36.0197163765      -22.4388541586  W2        636             0.0000000000
      1909       637  TIP3      OH2            13.8259512922      -35.7745163765      -21.7124041586  W2        637             0.0000000000
      1910       637  TIP3      H1             13.9021112922      -35.6793563765      -22.6618041586  W2        637             0.0000000000
      1911       637  TIP3      H2             13.5508712922      -36.6822263765      -21.5834941586  W2        637             0.0000000000
      1912       638  TIP3      OH2            15.1792112922      -35.7487363765      -26.0199041586  W2        638             0.0000000000
      1913       638  TIP3      H1             14.4763212922      -35.1338163765      -26.2297641586  W2        638             0.0000000000
      1914       638  TIP3      H2             14.7343512922      -36.5860663765      -25.8888141586  W2        638             0.0000000000
      1915       639  TIP3      OH2             2.4271412922      -19.9851763765      -26.4737641586  W2        639             0.0000000000
      1916       639  TIP3      H1              1.7421312922      -20.0232863765      -27.1412541586  W2        639             0.0000000000
      1917       639  TIP3      H2              2.4308612922      -19.0724163765      -26.1855541586  W2        639             0.0000000000
      1918       640  TIP3      OH2             4.3871012922      -34.0172463765      -28.9288641586  W2        640             0.0000000000
      1919       640  TIP3      H1              4.8784412922      -34.6470063765      -29.4563141586  W2        640             0.0000000000
      1920       640  TIP3      H2              5.0107312922      -33.7213063765      -28.2657441586  W2        640             0.0000000000
      1921       641  TIP3      OH2             9.4131112922      -33.7240963765      -26.4718141586  W2        641             0.0000000000
      1922       641  TIP3      H1              9.5912412922      -34.3707763765      -25.7889541586  W2        641             0.0000000000
      1923       641  TIP3      H2              9.3597312922      -32.8903263765      -26.0047041586  W2        641             0.0000000000
      1924       642  TIP3      OH2            11.2914912922      -18.7756863765      -28.0761441586  W2        642             0.0000000000
      1925       642  TIP3      H1             12.1575112922      -18.4089463765      -28.2543241586  W2        642             0.0000000000
      1926       642  TIP3      H2             11.0447712922      -19.2148863765      -28.8900641586  W2        642             0.0000000000
      1927       643  TIP3      OH2            18.0004512922      -19.2126563765      -25.3970341586  W2        643             0.0000000000
      1928       643  TIP3      H1             17.8061612922      -19.9604463765      -25.9620741586  W2        643             0.0000000000
      1929       643  TIP3      H2             17.9614612922      -18.4546463765      -25.9802441586  W2        643             0.0000000000
      1930       644  TIP3      OH2             3.6476512922      -35.2170163765      -13.6572641586  W2        644             0.0000000000
      1931       644  TIP3      H1              3.2814712922      -35.9827563765      -13.2147941586  W2        644             0.0000000000
      1932       644  TIP3      H2              4.5605012922      -35.1879963765      -13.3707541586  W2        644             0.0000000000
      1933       645  TIP3      OH2             5.6207312922      -35.8665763765      -12.1215541586  W2        645             0.0000000000
      1934       645  TIP3      H1              6.5190912922      -36.1405563765      -12.3062141586  W2        645             0.0000000000
      1935       645  TIP3      H2              5.2340412922      -36.6089763765      -11.6572941586  W2        645             0.0000000000
      1936       646  TIP3      OH2             4.2452612922      -19.0650963765      -29.4485541586  W2        646             0.0000000000
      1937       646  TIP3      H1              3.9777212922      -18.7788063765      -28.5752441586  W2        646             0.0000000000
      1938       646  TIP3      H2              5.0165212922      -19.6111763765      -29.2963041586  W2        646             0.0000000000
      1939       647  TIP3      OH2            14.0419612922      -36.5340463765      -11.9392741586  W2        647             0.0000000000
      1940       647  TIP3      H1             14.1186812922      -36.9599763765      -11.0855041586  W2        647             0.0000000000
      1941       647  TIP3      H2             14.9356212922      -36.5205763765      -12.2819241586  W2        647             0.0000000000
      1942       648  TIP3      OH2            17.2180712922      -20.4614163765      -13.2468541586  W2        648             0.0000000000
      1943       648  TIP3      H1             16.4362612922      -20.6476163765      -13.7667941586  W2        648             0.0000000000
      1944       648  TIP3      H2             17.1460612922      -19.5319863765      -13.0296041586  W2        648             0.0000000000
      1945       649  TIP3      OH2            31.6241112922      -26.5749763765      -23.2161341586  W2        649             0.0000000000
      1946       649  TIP3      H1             31.7132212922      -25.6311563765      -23.3484241586  W2        649             0.0000000000
      1947       649  TIP3      H2             30.9858712922      -26.8503363765      -23.8741941586  W2        649             0.0000000000
      1948       650  TIP3      OH2            30.5572412922      -27.3199063765      -19.7973141586  W2        650             0.0000000000
      1949       650  TIP3      H1             30.5189912922      -27.9662763765      -19.0923541586  W2        650             0.0000000000
      1950       650  TIP3      H2             30.2348912922      -27.7864663765      -20.5684441586  W2        650             0.0000000000
      1951       651  TIP3      OH2            22.9257412922      -27.7056963765      -18.2043241586  W2        651             0.0000000000
      1952       651  TIP3      H1             22.9669512922      -28.3313663765      -17.4810841586  W2        651             0.0000000000
      1953       651  TIP3      H2             23.6285112922      -27.0818363765      -18.0222841586  W2        651             0.0000000000
      1954       652  TIP3      OH2            34.2632612922      -24.3808663765      -21.4958041586  W2        652             0.0000000000
      1955       652  TIP3      H1             33.8225312922      -25.1012663765      -21.0452441586  W2        652             0.0000000000
      1956       652  TIP3      H2             34.2502312922      -23.6601463765      -20.8660341586  W2        652             0.0000000000
      1957       653  TIP3      OH2            23.8490512922      -23.2558063765      -19.6694141586  W2        653             0.0000000000
      1958       653  TIP3      H1             23.4795712922      -24.0577563765      -20.0389841586  W2        653             0.0000000000
      1959       653  TIP3      H2             24.7901612922      -23.4243163765      -19.6230741586  W2        653             0.0000000000
      1960       654  TIP3      OH2            20.4591012922      -29.5955463765      -24.2765341586  W2        654             0.0000000000
      1961       654  TIP3      H1             20.0114412922      -28.7496763765      -24.2948841586  W2        654             0.0000000000
      1962       654  TIP3      H2             19.8982212922      -30.1751263765      -24.7920241586  W2        654             0.0000000000
      1963       655  TIP3      OH2            21.1697112922      -27.4335863765      -22.1507341586  W2        655             0.0000000000
      1964       655  TIP3      H1             21.3830612922      -28.2034263765      -21.6234341586  W2        655             0.0000000000
      1965       655  TIP3      H2             21.9074712922      -27.3439163765      -22.7539741586  W2        655             0.0000000000
      1966       656  TIP3      OH2            31.3748112922      -19.2766963765      -21.2837641586  W2        656             0.0000000000
      1967       656  TIP3      H1             31.9944512922      -19.9532263765      -21.5568441586  W2        656             0.0000000000
      1968       656  TIP3      H2             31.1665512922      -19.4946163765      -20.3752741586  W2        656             0.0000000000
      1969       657  TIP3      OH2            28.9466812922      -24.8877663765      -19.3912141586  W2        657             0.0000000000
      1970       657  TIP3      H1             29.2504712922      -25.5736263765      -19.9858041586  W2        657             0.0000000000
      1971       657  TIP3      H2             29.6680812922      -24.7688963765      -18.7734141586  W2        657             0.0000000000
      1972       658  TIP3      OH2            32.0873812922      -30.4935263765      -19.0637341586  W2        658             0.0000000000
      1973       658  TIP3      H1             32.2299712922      -31.4398263765      -19.0435741586  W2        658             0.0000000000
      1974       658  TIP3      H2             31.9812812922      -30.2865463765      -19.9922441586  W2        658             0.0000000000
      1975       659  TIP3      OH2            25.2422112922      -32.3918863765      -21.7912541586  W2        659             0.0000000000
      1976       659  TIP3      H1             25.2853212922      -31.5320363765      -22.2096241586  W2        659             0.0000000000
      1977       659  TIP3      H2             24.7846212922      -32.9444163765      -22.4249341586  W2        659             0.0000000000
      1978       660  TIP3      OH2            32.9644812922      -32.2613263765      -23.3904241586  W2        660             0.0000000000
      1979       660  TIP3      H1             33.6109112922      -32.5900063765      -22.7656641586  W2        660             0.0000000000
      1980       660  TIP3      H2             33.4744212922      -31.7434263765      -24.0132841586  W2        660             0.0000000000
      1981       661  TIP3      OH2            21.8623612922      -29.9953063765      -21.0291141586  W2        661             0.0000000000
      1982       661  TIP3      H1             22.5160212922      -30.5451363765      -20.5971041586  W2        661             0.0000000000
      1983       661  TIP3      H2             21.8862912922      -30.2694063765      -21.9459141586  W2        661             0.0000000000
      1984       662  TIP3      OH2            27.0188112922      -28.4451763765      -21.8139641586  W2        662             0.0000000000
      1985       662  TIP3      H1             27.6349112922      -28.9716363765      -21.3045641586  W2        662             0.0000000000
      1986       662  TIP3      H2             26.4326912922      -29.0853063765      -22.2176041586  W2        662             0.0000000000
      1987       663  TIP3      OH2            24.0524012922      -33.4740463765      -17.7171741586  W2        663             0.0000000000
      1988       663  TIP3      H1             23.8335712922      -32.9439863765      -18.4835741586  W2        663             0.0000000000
      1989       663  TIP3      H2             23.3844912922      -33.2474963765      -17.0700341586  W2        663             0.0000000000
      1990       664  TIP3      OH2            31.4213812922      -23.9739363765      -24.1732641586  W2        664             0.0000000000
      1991       664  TIP3      H1             31.1258912922      -24.2967063765      -25.0245741586  W2        664             0.0000000000
      1992       664  TIP3      H2             31.0971612922      -23.0742663765      -24.1320041586  W2        664             0.0000000000
      1993       665  TIP3      OH2            26.6215412922      -25.7984763765      -17.4298041586  W2        665             0.0000000000
      1994       665  TIP3      H1             25.8814512922      -25.2003263765      -17.3262841586  W2        665             0.0000000000
      1995       665  TIP3      H2             27.3354912922      -25.2445163765      -17.7454441586  W2        665             0.0000000000
      1996       666  TIP3      OH2            34.7283212922      -32.9703963765      -21.4098341586  W2        666             0.0000000000
      1997       666  TIP3      H1             34.5131212922      -33.7360563765      -20.8772341586  W2        666             0.0000000000
      1998       666  TIP3      H2             35.3840612922      -32.4979363765      -20.8969841586  W2        666             0.0000000000
      1999       667  TIP3      OH2            23.6461312922      -31.5818663765      -19.7649541586  W2        667             0.0000000000
      2000       667  TIP3      H1             24.2597612922      -30.9491063765      -19.3917141586  W2        667             0.0000000000
      2001       667  TIP3      H2             24.1582012922      -32.0543663765      -20.4212641586  W2        667             0.0000000000
      2002       668  TIP3      OH2            25.0289712922      -23.8341763765      -16.6426541586  W2        668             0.0000000000
      2003       668  TIP3      H1             25.0237312922      -22.9548263765      -17.0207241586  W2        668             0.0000000000
      2004       668  TIP3      H2             24.1753812922      -23.9177663765      -16.2176641586  W2        668             0.0000000000
      2005       669  TIP3      OH2            21.1500612922      -24.1633863765      -25.8607241586  W2        669             0.0000000000
      2006       669  TIP3      H1             20.8781512922      -23.9342863765      -26.7494341586  W2        669             0.0000000000
      2007       669  TIP3      H2             21.1956312922      -23.3255063765      -25.4001941586  W2        669             0.0000000000
      2008       670  TIP3      OH2            34.7750312922      -22.5417963765      -19.1478741586  W2        670             0.0000000000
      2009       670  TIP3      H1             33.8334012922      -22.4834063765      -18.9861841586  W2        670             0.0000000000
      2010       670  TIP3      H2             35.0516412922      -21.6357463765      -19.2849041586  W2        670             0.0000000000
      2011       671  TIP3      OH2            35.0757312922      -34.2552663765      -17.7304841586  W2        671             0.0000000000
      2012       671  TIP3      H1             34.3396512922      -33.6445563765      -17.7683541586  W2        671             0.0000000000
      2013       671  TIP3      H2             35.7591312922      -33.8403663765      -18.2568441586  W2        671             0.0000000000
      2014       672  TIP3      OH2            28.0788712922      -36.1685363765      -20.2646841586  W2        672             0.0000000000
      2015       672  TIP3      H1             27.9612912922      -37.1169363765      -20.3188541586  W2        672             0.0000000000
      2016       672  TIP3      H2             27.2238812922      -35.8359263765      -19.9915741586  W2        672             0.0000000000
      2017       673  TIP3      OH2            33.0271512922      -20.7604463765      -22.5227141586  W2        673             0.0000000000
      2018       673  TIP3      H1             33.4523812922      -21.4676563765      -23.0077541586  W2        673             0.0000000000
      2019       673  TIP3      H2             33.3441512922      -19.9591763765      -22.9394941586  W2        673             0.0000000000
      2020       674  TIP3      OH2            34.1868012922      -22.8595963765      -24.0140541586  W2        674             0.0000000000
      2021       674  TIP3      H1             33.9292812922      -23.5495863765      -24.6254641586  W2        674             0.0000000000
      2022       674  TIP3      H2             34.2578812922      -23.3024763765      -23.1684641586  W2        674             0.0000000000
      2023       675  TIP3      OH2            35.8728212922      -24.2929263765      -15.5367041586  W2        675             0.0000000000
      2024       675  TIP3      H1             36.0124512922      -24.8846763765      -16.2760041586  W2        675             0.0000000000
      2025       675  TIP3      H2             36.0401012922      -23.4203363765      -15.8928241586  W2        675             0.0000000000
      2026       676  TIP3      OH2            30.3453612922      -27.3309763765      -25.7641041586  W2        676             0.0000000000
      2027       676  TIP3      H1             29.6339112922      -26.7960063765      -26.1160541586  W2        676             0.0000000000
      2028       676  TIP3      H2             31.0363212922      -27.2757663765      -26.4242141586  W2        676             0.0000000000
      2029       677  TIP3      OH2            30.3992812922      -28.8735463765      -28.7256041586  W2        677             0.0000000000
      2030       677  TIP3      H1             31.1002712922      -28.8508563765      -28.0742041586  W2        677             0.0000000000
      2031       677  TIP3      H2             30.7015712922      -29.5015763765      -29.3816741586  W2        677             0.0000000000
      2032       678  TIP3      OH2            33.7511312922      -27.1216463765      -24.8125141586  W2        678             0.0000000000
      2033       678  TIP3      H1             33.0192312922      -26.8932763765      -24.2394541586  W2        678             0.0000000000
      2034       678  TIP3      H2             34.1983512922      -27.8353763765      -24.3577641586  W2        678             0.0000000000
      2035       679  TIP3      OH2            33.6484812922      -28.9473863765      -15.7448141586  W2        679             0.0000000000
      2036       679  TIP3      H1             33.7283912922      -28.1839463765      -15.1729641586  W2        679             0.0000000000
      2037       679  TIP3      H2             33.0472512922      -28.6681463765      -16.4353041586  W2        679             0.0000000000
      2038       680  TIP3      OH2            25.3965012922      -26.4910263765      -22.9300141586  W2        680             0.0000000000
      2039       680  TIP3      H1             25.0660212922      -26.8616863765      -23.7483141586  W2        680             0.0000000000
      2040       680  TIP3      H2             25.9849112922      -27.1616263765      -22.5831841586  W2        680             0.0000000000
      2041       681  TIP3      OH2            26.7632512922      -23.0629663765      -20.2487941586  W2        681             0.0000000000
      2042       681  TIP3      H1             26.6683812922      -23.6416563765      -21.0053341586  W2        681             0.0000000000
      2043       681  TIP3      H2             27.4926112922      -23.4343963765      -19.7525141586  W2        681             0.0000000000
      2044       682  TIP3      OH2            25.7630512922      -27.7224663765      -19.2965141586  W2        682             0.0000000000
      2045       682  TIP3      H1             26.3283012922      -27.6010463765      -20.0593941586  W2        682             0.0000000000
      2046       682  TIP3      H2             26.0819412922      -27.0849663765      -18.6576641586  W2        682             0.0000000000
      2047       683  TIP3      OH2            32.0722712922      -22.2192763765      -18.5624641586  W2        683             0.0000000000
      2048       683  TIP3      H1             31.8319312922      -21.5569663765      -17.9145441586  W2        683             0.0000000000
      2049       683  TIP3      H2             31.8740912922      -23.0537563765      -18.1375041586  W2        683             0.0000000000
      2050       684  TIP3      OH2            26.6431212922      -23.3231963765      -14.5793241586  W2        684             0.0000000000
      2051       684  TIP3      H1             26.3318712922      -22.5408763765      -14.1240041586  W2        684             0.0000000000
      2052       684  TIP3      H2             25.9931412922      -23.4762863765      -15.2651241586  W2        684             0.0000000000
      2053       685  TIP3      OH2            32.6220812922      -27.9593563765      -27.1273941586  W2        685             0.0000000000
      2054       685  TIP3      H1             33.2016312922      -27.8093263765      -26.3805041586  W2        685             0.0000000000
      2055       685  TIP3      H2             33.0360812922      -27.4886163765      -27.8507541586  W2        685             0.0000000000
      2056       686  TIP3      OH2            23.5631112922      -27.1250863765      -15.3507541586  W2        686             0.0000000000
      2057       686  TIP3      H1             23.6334312922      -26.4744063765      -14.6522541586  W2        686             0.0000000000
      2058       686  TIP3      H2             22.6723312922      -27.0223363765      -15.6856641586  W2        686             0.0000000000
      2059       687  TIP3      OH2            30.3485712922      -21.2225063765      -23.6920841586  W2        687             0.0000000000
      2060       687  TIP3      H1             30.8223312922      -20.9268763765      -22.9146641586  W2        687             0.0000000000
      2061       687  TIP3      H2             29.7855012922      -20.4843463765      -23.9251241586  W2        687             0.0000000000
      2062       688  TIP3      OH2            24.8827112922      -21.2516963765      -13.8159441586  W2        688             0.0000000000
      2063       688  TIP3      H1             24.8902412922      -21.3877263765      -14.7633941586  W2        688             0.0000000000
      2064       688  TIP3      H2             23.9667512922      -21.3688863765      -13.5639441586  W2        688             0.0000000000
      2065       689  TIP3      OH2            36.3209212922      -36.2093163765      -27.3144241586  W2        689             0.0000000000
      2066       689  TIP3      H1             35.4209912922      -36.0704163765      -27.0193641586  W2        689             0.0000000000
      2067       689  TIP3      H2             36.5727612922      -35.3778563765      -27.7162541586  W2        689             0.0000000000
      2068       690  TIP3      OH2            24.3867712922      -27.4215963765      -25.3407341586  W2        690             0.0000000000
      2069       690  TIP3      H1             24.0949012922      -26.6534263765      -25.8316041586  W2        690             0.0000000000
      2070       690  TIP3      H2             23.7122912922      -28.0809763765      -25.5035941586  W2        690             0.0000000000
      2071       691  TIP3      OH2            20.4797812922      -25.0586763765      -16.5257541586  W2        691             0.0000000000
      2072       691  TIP3      H1             19.9786212922      -25.0867363765      -17.3407841586  W2        691             0.0000000000
      2073       691  TIP3      H2             20.4851512922      -25.9643563765      -16.2160241586  W2        691             0.0000000000
      2074       692  TIP3      OH2            20.2300512922      -22.2782963765      -19.6417341586  W2        692             0.0000000000
      2075       692  TIP3      H1             21.1761112922      -22.4225963765      -19.6607841586  W2        692             0.0000000000
      2076       692  TIP3      H2             20.1176812922      -21.4940163765      -19.1046141586  W2        692             0.0000000000
      2077       693  TIP3      OH2            29.4063012922      -22.0384063765      -15.0832241586  W2        693             0.0000000000
      2078       693  TIP3      H1             29.4937612922      -21.2119463765      -14.6083141586  W2        693             0.0000000000
      2079       693  TIP3      H2             28.5428112922      -22.3680263765      -14.8342941586  W2        693             0.0000000000
      2080       694  TIP3      OH2            29.8208812922      -18.2660363765      -25.2771641586  W2        694             0.0000000000
      2081       694  TIP3      H1             29.7454812922      -18.3873163765      -26.2236441586  W2        694             0.0000000000
      2082       694  TIP3      H2             29.8537512922      -17.3167663765      -25.1587041586  W2        694             0.0000000000
      2083       695  TIP3      OH2            23.4742612922      -19.4773363765      -23.4962641586  W2        695             0.0000000000
      2084       695  TIP3      H1             23.6263012922      -19.8252963765      -22.6176141586  W2        695             0.0000000000
      2085       695  TIP3      H2             22.6233012922      -19.8336063765      -23.7515441586  W2        695             0.0000000000
      2086       696  TIP3      OH2            32.9224812922      -19.1120163765      -28.2749241586  W2        696             0.0000000000
      2087       696  TIP3      H1             33.2973212922      -19.8564063765      -28.7456641586  W2        696             0.0000000000
      2088       696  TIP3      H2             32.9268512922      -19.3819563765      -27.3565941586  W2        696             0.0000000000
      2089       697  TIP3      OH2            32.5912912922      -19.1863063765      -25.5257041586  W2        697             0.0000000000
      2090       697  TIP3      H1             31.6562712922      -19.0861163765      -25.3470041586  W2        697             0.0000000000
      2091       697  TIP3      H2             32.8714812922      -19.8957063765      -24.9473841586  W2        697             0.0000000000
      2092       698  TIP3      OH2            35.5798812922      -30.1190763765      -13.4791441586  W2        698             0.0000000000
      2093       698  TIP3      H1             35.1725612922      -29.6385163765      -14.1998141586  W2        698             0.0000000000
      2094       698  TIP3      H2             35.6204512922      -31.0244763765      -13.7870641586  W2        698             0.0000000000
      2095       699  TIP3      OH2            22.7288312922      -23.7351363765      -15.4824741586  W2        699             0.0000000000
      2096       699  TIP3      H1             22.9449612922      -24.0965763765      -14.6228941586  W2        699             0.0000000000
      2097       699  TIP3      H2             21.8733012922      -24.1097563765      -15.6921241586  W2        699             0.0000000000
      2098       700  TIP3      OH2            25.3476312922      -35.2650863765      -19.4870541586  W2        700             0.0000000000
      2099       700  TIP3      H1             24.4860012922      -35.3522663765      -19.8947641586  W2        700             0.0000000000
      2100       700  TIP3      H2             25.3252012922      -34.4090763765      -19.0592941586  W2        700             0.0000000000
      2101       701  TIP3      OH2            30.0104112922      -35.5430463765      -16.1123541586  W2        701             0.0000000000
      2102       701  TIP3      H1             30.4307212922      -35.9583363765      -15.3592941586  W2        701             0.0000000000
      2103       701  TIP3      H2             29.0773712922      -35.7217163765      -15.9951541586  W2        701             0.0000000000
      2104       702  TIP3      OH2            33.3369012922      -31.7875263765      -15.2589041586  W2        702             0.0000000000
      2105       702  TIP3      H1             32.8228512922      -31.9133063765      -14.4613041586  W2        702             0.0000000000
      2106       702  TIP3      H2             33.1813712922      -30.8752163765      -15.5032841586  W2        702             0.0000000000
      2107       703  TIP3      OH2            34.0993912922      -26.9265263765      -29.4976041586  W2        703             0.0000000000
      2108       703  TIP3      H1             34.1414712922      -27.1491363765      -30.4276041586  W2        703             0.0000000000
      2109       703  TIP3      H2             34.9486012922      -26.5278163765      -29.3076141586  W2        703             0.0000000000
      2110       704  TIP3      OH2            29.6721412922      -33.0507063765      -28.8272741586  W2        704             0.0000000000
      2111       704  TIP3      H1             29.4186212922      -33.0315463765      -27.9044641586  W2        704             0.0000000000
      2112       704  TIP3      H2             29.4153512922      -33.9221663765      -29.1286541586  W2        704             0.0000000000
      2113       705  TIP3      OH2            25.4386412922      -30.2996363765      -18.3920341586  W2        705             0.0000000000
      2114       705  TIP3      H1             24.7968512922      -30.3399063765      -17.6830241586  W2        705             0.0000000000
      2115       705  TIP3      H2             25.4758412922      -29.3731663765      -18.6297341586  W2        705             0.0000000000
      2116       706  TIP3      OH2            25.4355512922      -30.0786263765      -23.4800341586  W2        706             0.0000000000
      2117       706  TIP3      H1             24.5428412922      -30.4190163765      -23.5386541586  W2        706             0.0000000000
      2118       706  TIP3      H2             25.8862112922      -30.4555363765      -24.2357141586  W2        706             0.0000000000
      2119       707  TIP3      OH2            30.9711012922      -29.6625963765      -24.6629541586  W2        707             0.0000000000
      2120       707  TIP3      H1             30.5621312922      -28.8477363765      -24.9544741586  W2        707             0.0000000000
      2121       707  TIP3      H2             31.6917212922      -29.8025863765      -25.2772441586  W2        707             0.0000000000
      2122       708  TIP3      OH2            30.0732612922      -29.4869563765      -13.1748841586  W2        708             0.0000000000
      2123       708  TIP3      H1             29.5106412922      -30.1917963765      -12.8541041586  W2        708             0.0000000000
      2124       708  TIP3      H2             30.8996012922      -29.6077663765      -12.7071241586  W2        708             0.0000000000
      2125       709  TIP3      OH2            31.9758712922      -30.2165563765      -21.8489841586  W2        709             0.0000000000
      2126       709  TIP3      H1             31.7803212922      -29.6108763765      -22.5639241586  W2        709             0.0000000000
      2127       709  TIP3      H2             32.1571312922      -31.0500363765      -22.2833541586  W2        709             0.0000000000
      2128       710  TIP3      OH2            23.1886912922      -29.9792863765      -16.5248341586  W2        710             0.0000000000
      2129       710  TIP3      H1             23.1506312922      -29.5791263765      -15.6561241586  W2        710             0.0000000000
      2130       710  TIP3      H2             22.6978012922      -30.7960463765      -16.4345441586  W2        710             0.0000000000
      2131       711  TIP3      OH2            26.5544312922      -32.6050563765      -29.7262341586  W2        711             0.0000000000
      2132       711  TIP3      H1             26.1235012922      -33.0500463765      -28.9964941586  W2        711             0.0000000000
      2133       711  TIP3      H2             25.8363012922      -32.2334263765      -30.2384841586  W2        711             0.0000000000
      2134       712  TIP3      OH2            19.7967712922      -32.8631063765      -22.6743641586  W2        712             0.0000000000
      2135       712  TIP3      H1             20.4275412922      -32.8918963765      -21.9549741586  W2        712             0.0000000000
      2136       712  TIP3      H2             20.2462012922      -33.2882363765      -23.4047741586  W2        712             0.0000000000
      2137       713  TIP3      OH2            21.0709812922      -32.1169063765      -27.2503241586  W2        713             0.0000000000
      2138       713  TIP3      H1             21.5451512922      -31.5259163765      -27.8352341586  W2        713             0.0000000000
      2139       713  TIP3      H2             20.3536212922      -31.5866163765      -26.9033141586  W2        713             0.0000000000
      2140       714  TIP3      OH2            31.2397912922      -28.5784263765      -17.1777441586  W2        714             0.0000000000
      2141       714  TIP3      H1             31.5632712922      -29.2094563765      -17.8206941586  W2        714             0.0000000000
      2142       714  TIP3      H2             30.7997212922      -29.1132063765      -16.5170041586  W2        714             0.0000000000
      2143       715  TIP3      OH2            28.0170812922      -32.6508763765      -22.3936241586  W2        715             0.0000000000
      2144       715  TIP3      H1             27.1061912922      -32.5941963765      -22.1050241586  W2        715             0.0000000000
      2145       715  TIP3      H2             28.5223712922      -32.7113263765      -21.5829041586  W2        715             0.0000000000
      2146       716  TIP3      OH2            22.8454212922      -31.0222463765      -23.5668641586  W2        716             0.0000000000
      2147       716  TIP3      H1             21.9562212922      -30.9226963765      -23.9069041586  W2        716             0.0000000000
      2148       716  TIP3      H2             23.1419112922      -31.8639463765      -23.9130741586  W2        716             0.0000000000
      2149       717  TIP3      OH2            26.4986012922      -31.0219863765      -25.9104041586  W2        717             0.0000000000
      2150       717  TIP3      H1             27.4301512922      -30.8929863765      -25.7320941586  W2        717             0.0000000000
      2151       717  TIP3      H2             26.2836312922      -30.3525563765      -26.5599341586  W2        717             0.0000000000
      2152       718  TIP3      OH2            32.4222712922      -33.4162463765      -19.1294441586  W2        718             0.0000000000
      2153       718  TIP3      H1             31.7454312922      -33.2849363765      -18.4654741586  W2        718             0.0000000000
      2154       718  TIP3      H2             31.9367612922      -33.5712963765      -19.9396741586  W2        718             0.0000000000
      2155       719  TIP3      OH2            25.1726212922      -29.8277663765      -28.3437941586  W2        719             0.0000000000
      2156       719  TIP3      H1             24.6301312922      -30.2073863765      -29.0350341586  W2        719             0.0000000000
      2157       719  TIP3      H2             26.0061112922      -29.6332963765      -28.7723841586  W2        719             0.0000000000
      2158       720  TIP3      OH2            35.7097812922      -17.7447063765      -12.8526841586  W2        720             0.0000000000
      2159       720  TIP3      H1             35.9096512922      -17.3205163765      -13.6871541586  W2        720             0.0000000000
      2160       720  TIP3      H2             36.3651512922      -17.4008863765      -12.2456441586  W2        720             0.0000000000
      2161       721  TIP3      OH2            23.3077612922      -25.2705763765      -13.2446341586  W2        721             0.0000000000
      2162       721  TIP3      H1             24.0400012922      -25.0159863765      -12.6831841586  W2        721             0.0000000000
      2163       721  TIP3      H2             22.5276312922      -25.0660363765      -12.7290941586  W2        721             0.0000000000
      2164       722  TIP3      OH2            29.3370512922      -29.8635763765      -20.5066641586  W2        722             0.0000000000
      2165       722  TIP3      H1             29.9013912922      -30.4099163765      -21.0537041586  W2        722             0.0000000000
      2166       722  TIP3      H2             29.1893912922      -30.3853863765      -19.7179041586  W2        722             0.0000000000
      2167       723  TIP3      OH2            24.3390212922      -33.7269663765      -24.0881841586  W2        723             0.0000000000
      2168       723  TIP3      H1             24.0219712922      -34.6294363765      -24.1236441586  W2        723             0.0000000000
      2169       723  TIP3      H2             25.1204312922      -33.7252263765      -24.6410241586  W2        723             0.0000000000
      2170       724  TIP3      OH2            27.9636412922      -31.4749663765      -18.0926241586  W2        724             0.0000000000
      2171       724  TIP3      H1             27.1281712922      -31.0210163765      -17.9823841586  W2        724             0.0000000000
      2172       724  TIP3      H2             28.4877012922      -31.1991163765      -17.3406341586  W2        724             0.0000000000
      2173       725  TIP3      OH2            28.5079012922      -25.2621963765      -26.4079841586  W2        725             0.0000000000
      2174       725  TIP3      H1             27.7630012922      -25.7696663765      -26.7301941586  W2        725             0.0000000000
      2175       725  TIP3      H2             28.3736212922      -25.2133963765      -25.4615041586  W2        725             0.0000000000
      2176       726  TIP3      OH2            35.6577912922      -26.1293763765      -17.6212241586  W2        726             0.0000000000
      2177       726  TIP3      H1             36.2996712922      -25.6727463765      -18.1650041586  W2        726             0.0000000000
      2178       726  TIP3      H2             34.8274812922      -26.0161363765      -18.0838141586  W2        726             0.0000000000
      2179       727  TIP3      OH2            32.4055812922      -32.4482063765      -28.2087241586  W2        727             0.0000000000
      2180       727  TIP3      H1             31.4670012922      -32.3366463765      -28.3598441586  W2        727             0.0000000000
      2181       727  TIP3      H2             32.7027912922      -31.5915163765      -27.9021541586  W2        727             0.0000000000
      2182       728  TIP3      OH2            30.0271112922      -25.0778663765      -15.1710741586  W2        728             0.0000000000
      2183       728  TIP3      H1             29.6817212922      -25.4596263765      -14.3641141586  W2        728             0.0000000000
      2184       728  TIP3      H2             29.8271212922      -24.1445063765      -15.0997841586  W2        728             0.0000000000
      2185       729  TIP3      OH2            33.1239312922      -30.5809363765      -26.5479841586  W2        729             0.0000000000
      2186       729  TIP3      H1             34.0158312922      -30.7184363765      -26.2288641586  W2        729             0.0000000000
      2187       729  TIP3      H2             33.1802912922      -29.7903263765      -27.0846341586  W2        729             0.0000000000
      2188       730  TIP3      OH2            23.6327312922      -25.9671963765      -20.6381941586  W2        730             0.0000000000
      2189       730  TIP3      H1             24.3774512922      -25.9696263765      -21.2395441586  W2        730             0.0000000000
      2190       730  TIP3      H2             23.7103912922      -26.7908163765      -20.1566841586  W2        730             0.0000000000
      2191       731  TIP3      OH2            30.6333112922      -23.8037663765      -27.3825241586  W2        731             0.0000000000
      2192       731  TIP3      H1             30.3381512922      -22.9769763765      -27.0010441586  W2        731             0.0000000000
      2193       731  TIP3      H2             29.9303112922      -24.4230763765      -27.1863841586  W2        731             0.0000000000
      2194       732  TIP3      OH2            20.6407012922      -27.5065063765      -15.3233441586  W2        732             0.0000000000
      2195       732  TIP3      H1             20.8635612922      -27.9245463765      -14.4915941586  W2        732             0.0000000000
      2196       732  TIP3      H2             20.0387112922      -28.1190063765      -15.7460641586  W2        732             0.0000000000
      2197       733  TIP3      OH2            27.6571912922      -27.9895163765      -13.1103741586  W2        733             0.0000000000
      2198       733  TIP3      H1             27.3612712922      -28.1552163765      -14.0054641586  W2        733             0.0000000000
      2199       733  TIP3      H2             28.5887112922      -28.2094863765      -13.1209841586  W2        733             0.0000000000
      2200       734  TIP3      OH2            32.2774712922      -22.6163163765      -15.2205741586  W2        734             0.0000000000
      2201       734  TIP3      H1             31.3769012922      -22.4330563765      -15.4881841586  W2        734             0.0000000000
      2202       734  TIP3      H2             32.3115812922      -22.3573863765      -14.2996941586  W2        734             0.0000000000
      2203       735  TIP3      OH2            36.3039712922      -21.5854863765      -26.3881041586  W2        735             0.0000000000
      2204       735  TIP3      H1             35.9310812922      -22.4111063765      -26.0790441586  W2        735             0.0000000000
      2205       735  TIP3      H2             36.5813212922      -21.7685463765      -27.2857641586  W2        735             0.0000000000
      2206       736  TIP3      OH2            33.4643612922      -26.7775363765      -19.3669141586  W2        736             0.0000000000
      2207       736  TIP3      H1             32.5360512922      -27.0093463765      -19.3939841586  W2        736             0.0000000000
      2208       736  TIP3      H2             33.9154712922      -27.5545563765      -19.6970341586  W2        736             0.0000000000
      2209       737  TIP3      OH2            26.0076712922      -22.4493763765      -23.2340441586  W2        737             0.0000000000
      2210       737  TIP3      H1             26.5348912922      -21.6759363765      -23.4341641586  W2        737             0.0000000000
      2211       737  TIP3      H2             25.1275212922      -22.2244563765      -23.5356441586  W2        737             0.0000000000
      2212       738  TIP3      OH2            21.7624412922      -27.5869663765      -28.6468041586  W2        738             0.0000000000
      2213       738  TIP3      H1             22.3784312922      -26.9602463765      -28.2673241586  W2        738             0.0000000000
      2214       738  TIP3      H2             20.9007012922      -27.2709863765      -28.3751541586  W2        738             0.0000000000
      2215       739  TIP3      OH2            27.4349012922      -24.7863863765      -23.6576141586  W2        739             0.0000000000
      2216       739  TIP3      H1             27.1939012922      -23.8609463765      -23.6160841586  W2        739             0.0000000000
      2217       739  TIP3      H2             26.6942612922      -25.2452563765      -23.2612241586  W2        739             0.0000000000
      2218       740  TIP3      OH2            27.9495612922      -20.6370263765      -17.3425041586  W2        740             0.0000000000
      2219       740  TIP3      H1             28.3120312922      -19.7824663765      -17.5760641586  W2        740             0.0000000000
      2220       740  TIP3      H2             28.4810812922      -20.9288663765      -16.6018741586  W2        740             0.0000000000
      2221       741  TIP3      OH2            26.1179812922      -19.7646263765      -24.1123941586  W2        741             0.0000000000
      2222       741  TIP3      H1             25.1680312922      -19.6588863765      -24.0610641586  W2        741             0.0000000000
      2223       741  TIP3      H2             26.4697912922      -18.9438863765      -23.7676441586  W2        741             0.0000000000
      2224       742  TIP3      OH2            31.4936412922      -24.5379563765      -17.6419441586  W2        742             0.0000000000
      2225       742  TIP3      H1             31.0677712922      -24.7657863765      -16.8155441586  W2        742             0.0000000000
      2226       742  TIP3      H2             32.0742212922      -25.2767763765      -17.8244141586  W2        742             0.0000000000
      2227       743  TIP3      OH2            33.6965312922      -23.6089063765      -28.5680441586  W2        743             0.0000000000
      2228       743  TIP3      H1             34.0498412922      -23.9889263765      -27.7636941586  W2        743             0.0000000000
      2229       743  TIP3      H2             32.7478812922      -23.7024263765      -28.4811141586  W2        743             0.0000000000
      2230       744  TIP3      OH2            34.1520612922      -19.9860063765      -15.1724641586  W2        744             0.0000000000
      2231       744  TIP3      H1             33.5503812922      -20.5417163765      -15.6678341586  W2        744             0.0000000000
      2232       744  TIP3      H2             34.4334312922      -19.3190263765      -15.7987241586  W2        744             0.0000000000
      2233       745  TIP3      OH2            22.2746512922      -32.7532363765      -15.7652041586  W2        745             0.0000000000
      2234       745  TIP3      H1             21.3818812922      -32.4146963765      -15.8328041586  W2        745             0.0000000000
      2235       745  TIP3      H2             22.1759312922      -33.6086263765      -15.3471241586  W2        745             0.0000000000
      2236       746  TIP3      OH2            34.5624612922      -24.9367063765      -26.3412541586  W2        746             0.0000000000
      2237       746  TIP3      H1             34.2852212922      -25.6647763765      -25.7851441586  W2        746             0.0000000000
      2238       746  TIP3      H2             35.4897612922      -24.8175063765      -26.1359941586  W2        746             0.0000000000
      2239       747  TIP3      OH2            21.9258512922      -20.9487963765      -17.3302641586  W2        747             0.0000000000
      2240       747  TIP3      H1             22.1428812922      -21.8805563765      -17.3612941586  W2        747             0.0000000000
      2241       747  TIP3      H2             22.1722012922      -20.6742963765      -16.4469841586  W2        747             0.0000000000
      2242       748  TIP3      OH2            27.7873112922      -22.4972963765      -30.1210441586  W2        748             0.0000000000
      2243       748  TIP3      H1             28.0262912922      -23.2454863765      -30.6681541586  W2        748             0.0000000000
      2244       748  TIP3      H2             27.5184412922      -22.8851263765      -29.2882641586  W2        748             0.0000000000
      2245       749  TIP3      OH2            26.7243712922      -22.9269163765      -27.6647841586  W2        749             0.0000000000
      2246       749  TIP3      H1             26.8711712922      -23.4469363765      -26.8746941586  W2        749             0.0000000000
      2247       749  TIP3      H2             26.7215412922      -22.0201563765      -27.3581941586  W2        749             0.0000000000
      2248       750  TIP3      OH2            23.1774812922      -25.6745863765      -27.1542441586  W2        750             0.0000000000
      2249       750  TIP3      H1             22.4914112922      -25.3223363765      -26.5872741586  W2        750             0.0000000000
      2250       750  TIP3      H2             23.7002712922      -24.9116263765      -27.4008141586  W2        750             0.0000000000
      2251       751  TIP3      OH2            31.0089912922      -33.0122063765      -16.8753441586  W2        751             0.0000000000
      2252       751  TIP3      H1             31.7077812922      -32.9383363765      -16.2253741586  W2        751             0.0000000000
      2253       751  TIP3      H2             30.6281312922      -33.8767063765      -16.7210541586  W2        751             0.0000000000
      2254       752  TIP3      OH2            31.7934812922      -33.3600363765      -25.7781141586  W2        752             0.0000000000
      2255       752  TIP3      H1             32.0133112922      -32.8884963765      -26.5815741586  W2        752             0.0000000000
      2256       752  TIP3      H2             32.3518812922      -32.9657763765      -25.1080541586  W2        752             0.0000000000
      2257       753  TIP3      OH2            29.4620912922      -21.2295563765      -26.9153641586  W2        753             0.0000000000
      2258       753  TIP3      H1             28.6457012922      -20.7325863765      -26.8629341586  W2        753             0.0000000000
      2259       753  TIP3      H2             29.9917212922      -20.7542063765      -27.5554841586  W2        753             0.0000000000
      2260       754  TIP3      OH2            28.9934712922      -31.6321563765      -24.9432741586  W2        754             0.0000000000
      2261       754  TIP3      H1             29.8057312922      -31.1278363765      -24.8971041586  W2        754             0.0000000000
      2262       754  TIP3      H2             28.7487712922      -31.7771863765      -24.0293141586  W2        754             0.0000000000
      2263       755  TIP3      OH2            29.5291112922      -30.6458863765      -15.7586141586  W2        755             0.0000000000
      2264       755  TIP3      H1             29.6481412922      -30.0723463765      -15.0015741586  W2        755             0.0000000000
      2265       755  TIP3      H2             30.1845712922      -31.3339463765      -15.6438341586  W2        755             0.0000000000
      2266       756  TIP3      OH2            29.8771412922      -34.5508563765      -24.0051641586  W2        756             0.0000000000
      2267       756  TIP3      H1             29.5304912922      -33.9337963765      -23.3607341586  W2        756             0.0000000000
      2268       756  TIP3      H2             30.5358312922      -34.0502863765      -24.4866141586  W2        756             0.0000000000
      2269       757  TIP3      OH2            26.8004012922      -20.1858363765      -26.9336741586  W2        757             0.0000000000
      2270       757  TIP3      H1             26.9612712922      -19.3860863765      -27.4344141586  W2        757             0.0000000000
      2271       757  TIP3      H2             26.6031812922      -19.8792363765      -26.0486141586  W2        757             0.0000000000
      2272       758  TIP3      OH2            25.5348412922      -33.4879163765      -27.3179141586  W2        758             0.0000000000
      2273       758  TIP3      H1             25.4513212922      -32.5996063765      -26.9712741586  W2        758             0.0000000000
      2274       758  TIP3      H2             26.4248712922      -33.7532463765      -27.0862341586  W2        758             0.0000000000
      2275       759  TIP3      OH2            35.7336912922      -32.7388563765      -14.9236441586  W2        759             0.0000000000
      2276       759  TIP3      H1             34.8172712922      -32.4766863765      -15.0112741586  W2        759             0.0000000000
      2277       759  TIP3      H2             36.0691912922      -32.7419563765      -15.8201141586  W2        759             0.0000000000
      2278       760  TIP3      OH2            34.3357912922      -28.9887563765      -20.8279141586  W2        760             0.0000000000
      2279       760  TIP3      H1             33.5382312922      -29.4037363765      -21.1564141586  W2        760             0.0000000000
      2280       760  TIP3      H2             34.7809012922      -29.6793863765      -20.3368641586  W2        760             0.0000000000
      2281       761  TIP3      OH2            23.7933712922      -23.0606963765      -28.2574641586  W2        761             0.0000000000
      2282       761  TIP3      H1             24.3855212922      -22.3612163765      -27.9812241586  W2        761             0.0000000000
      2283       761  TIP3      H2             24.2526712922      -23.4937463765      -28.9770041586  W2        761             0.0000000000
      2284       762  TIP3      OH2            22.1092912922      -30.3963963765      -29.1415241586  W2        762             0.0000000000
      2285       762  TIP3      H1             22.0645512922      -29.4570863765      -28.9628241586  W2        762             0.0000000000
      2286       762  TIP3      H2             21.2216112922      -30.6319063765      -29.4113141586  W2        762             0.0000000000
      2287       763  TIP3      OH2            35.4222512922      -19.7325063765      -19.2055641586  W2        763             0.0000000000
      2288       763  TIP3      H1             35.2666812922      -19.0540663765      -19.8626341586  W2        763             0.0000000000
      2289       763  TIP3      H2             36.3548912922      -19.6605763765      -19.0025041586  W2        763             0.0000000000
      2290       764  TIP3      OH2            22.9174912922      -35.6147363765      -20.4684241586  W2        764             0.0000000000
      2291       764  TIP3      H1             22.6884712922      -35.5554863765      -21.3959241586  W2        764             0.0000000000
      2292       764  TIP3      H2             22.4748312922      -36.4061863765      -20.1620141586  W2        764             0.0000000000
      2293       765  TIP3      OH2            21.8478212922      -21.6740263765      -24.3078441586  W2        765             0.0000000000
      2294       765  TIP3      H1             21.0156812922      -21.2017563765      -24.2807041586  W2        765             0.0000000000
      2295       765  TIP3      H2             22.3936512922      -21.1642663765      -24.9065341586  W2        765             0.0000000000
      2296       766  TIP3      OH2            21.1361912922      -19.0616563765      -12.9780441586  W2        766             0.0000000000
      2297       766  TIP3      H1             21.6764112922      -19.2782563765      -12.2181241586  W2        766             0.0000000000
      2298       766  TIP3      H2             20.6549912922      -19.8670563765      -13.1677941586  W2        766             0.0000000000
      2299       767  TIP3      OH2            25.7335312922      -20.1422163765      -11.3576241586  W2        767             0.0000000000
      2300       767  TIP3      H1             26.5012512922      -20.6011363765      -11.0167041586  W2        767             0.0000000000
      2301       767  TIP3      H2             25.7121512922      -20.3682363765      -12.2875041586  W2        767             0.0000000000
      2302       768  TIP3      OH2            29.8254912922      -20.6341563765      -29.9824441586  W2        768             0.0000000000
      2303       768  TIP3      H1             29.1815912922      -21.2652963765      -29.6610741586  W2        768             0.0000000000
      2304       768  TIP3      H2             30.5873212922      -21.1653563765      -30.2140941586  W2        768             0.0000000000
      2305       769  TIP3      OH2            32.3104012922      -21.7621063765      -12.6284741586  W2        769             0.0000000000
      2306       769  TIP3      H1             31.9593512922      -22.6188063765      -12.3854341586  W2        769             0.0000000000
      2307       769  TIP3      H2             33.0367212922      -21.6194363765      -12.0215741586  W2        769             0.0000000000
      2308       770  TIP3      OH2            34.4297812922      -20.8171663765      -29.7486441586  W2        770             0.0000000000
      2309       770  TIP3      H1             34.7128212922      -21.6116463765      -29.2959541586  W2        770             0.0000000000
      2310       770  TIP3      H2             35.1695712922      -20.5840663765      -30.3095341586  W2        770             0.0000000000
      2311       771  TIP3      OH2            21.0431412922      -25.2512463765      -12.0236141586  W2        771             0.0000000000
      2312       771  TIP3      H1             21.1871912922      -26.1531763765      -12.3099441586  W2        771             0.0000000000
      2313       771  TIP3      H2             20.2708812922      -24.9650363765      -12.5113841586  W2        771             0.0000000000
      2314       772  TIP3      OH2            25.3845112922      -24.9076763765      -29.8911541586  W2        772             0.0000000000
      2315       772  TIP3      H1             25.4489212922      -25.7017163765      -29.3605141586  W2        772             0.0000000000
      2316       772  TIP3      H2             26.0374312922      -25.0263963765      -30.5809541586  W2        772             0.0000000000
      2317       773  TIP3      OH2            27.6987512922      -25.2814363765      -12.5909741586  W2        773             0.0000000000
      2318       773  TIP3      H1             27.3701312922      -25.0106263765      -13.4482341586  W2        773             0.0000000000
      2319       773  TIP3      H2             27.8505712922      -26.2224563765      -12.6784741586  W2        773             0.0000000000
      2320       774  TIP3      OH2            30.7368512922      -23.8605063765      -30.1553541586  W2        774             0.0000000000
      2321       774  TIP3      H1             30.4682612922      -23.6802963765      -29.2544641586  W2        774             0.0000000000
      2322       774  TIP3      H2             30.5304112922      -24.7858863765      -30.2867741586  W2        774             0.0000000000
      2323       775  TIP3      OH2            33.4332712922      -25.3657063765      -15.2077441586  W2        775             0.0000000000
      2324       775  TIP3      H1             34.1787512922      -24.7773363765      -15.3273441586  W2        775             0.0000000000
      2325       775  TIP3      H2             32.6759512922      -24.7837363765      -15.1444341586  W2        775             0.0000000000
      2326       776  TIP3      OH2            21.8757912922      -28.0509163765      -12.6036841586  W2        776             0.0000000000
      2327       776  TIP3      H1             22.2839112922      -28.9082563765      -12.7246241586  W2        776             0.0000000000
      2328       776  TIP3      H2             21.6155512922      -28.0367863765      -11.6826541586  W2        776             0.0000000000
      2329       777  TIP3      OH2            26.5338912922      -26.9350563765      -27.5853541586  W2        777             0.0000000000
      2330       777  TIP3      H1             26.0740912922      -27.4192263765      -26.8995041586  W2        777             0.0000000000
      2331       777  TIP3      H2             26.7887612922      -27.6035163765      -28.2213041586  W2        777             0.0000000000
      2332       778  TIP3      OH2            25.8228212922      -29.0423463765      -15.2293941586  W2        778             0.0000000000
      2333       778  TIP3      H1             25.2044312922      -28.3676863765      -14.9489241586  W2        778             0.0000000000
      2334       778  TIP3      H2             26.1669412922      -28.7209563765      -16.0627741586  W2        778             0.0000000000
      2335       779  TIP3      OH2            27.6049312922      -28.6918763765      -29.3230341586  W2        779             0.0000000000
      2336       779  TIP3      H1             27.4244312922      -28.8467563765      -30.2502041586  W2        779             0.0000000000
      2337       779  TIP3      H2             28.5549812922      -28.5840063765      -29.2782441586  W2        779             0.0000000000
      2338       780  TIP3      OH2            30.8426412922      -26.5708163765      -11.9519141586  W2        780             0.0000000000
      2339       780  TIP3      H1             31.7957612922      -26.4869063765      -11.9793141586  W2        780             0.0000000000
      2340       780  TIP3      H2             30.6821012922      -27.2826363765      -11.3324241586  W2        780             0.0000000000
      2341       781  TIP3      OH2            26.1621912922      -31.6872663765      -14.1470841586  W2        781             0.0000000000
      2342       781  TIP3      H1             26.3122812922      -32.4161363765      -14.7491141586  W2        781             0.0000000000
      2343       781  TIP3      H2             26.1644312922      -30.9100963765      -14.7058641586  W2        781             0.0000000000
      2344       782  TIP3      OH2            26.5747612922      -33.3176863765      -16.6543441586  W2        782             0.0000000000
      2345       782  TIP3      H1             27.1105112922      -32.8660163765      -17.3064141586  W2        782             0.0000000000
      2346       782  TIP3      H2             25.7227212922      -33.4257063765      -17.0769341586  W2        782             0.0000000000
      2347       783  TIP3      OH2            28.1566012922      -27.8780663765      -16.4148241586  W2        783             0.0000000000
      2348       783  TIP3      H1             28.9070812922      -28.0343163765      -16.9880441586  W2        783             0.0000000000
      2349       783  TIP3      H2             27.8174312922      -27.0264063765      -16.6902741586  W2        783             0.0000000000
      2350       784  TIP3      OH2            32.5722212922      -30.0628863765      -11.3862941586  W2        784             0.0000000000
      2351       784  TIP3      H1             32.7643512922      -30.9939463765      -11.4978441586  W2        784             0.0000000000
      2352       784  TIP3      H2             33.4298512922      -29.6379363765      -11.3967541586  W2        784             0.0000000000
      2353       785  TIP3      OH2            33.8889412922      -27.2743663765      -13.3090241586  W2        785             0.0000000000
      2354       785  TIP3      H1             33.6074412922      -26.5649063765      -13.8866441586  W2        785             0.0000000000
      2355       785  TIP3      H2             34.8313712922      -27.3470663765      -13.4599041586  W2        785             0.0000000000
      2356       786  TIP3      OH2            24.6408212922      -30.4889163765      -12.2355241586  W2        786             0.0000000000
      2357       786  TIP3      H1             23.8737212922      -31.0214363765      -12.4457641586  W2        786             0.0000000000
      2358       786  TIP3      H2             25.3197212922      -30.7988763765      -12.8348941586  W2        786             0.0000000000
      2359       787  TIP3      OH2            27.3803112922      -35.8611163765      -16.2229841586  W2        787             0.0000000000
      2360       787  TIP3      H1             27.2822712922      -34.9147963765      -16.3283641586  W2        787             0.0000000000
      2361       787  TIP3      H2             26.6379312922      -36.2337363765      -16.6986341586  W2        787             0.0000000000
      2362       788  TIP3      OH2            28.6443612922      -31.5395763765      -12.6591441586  W2        788             0.0000000000
      2363       788  TIP3      H1             28.4089012922      -31.7589063765      -11.7576541586  W2        788             0.0000000000
      2364       788  TIP3      H2             27.8610512922      -31.7464563765      -13.1688941586  W2        788             0.0000000000
      2365       789  TIP3      OH2            31.3600212922      -32.4122263765      -13.5837941586  W2        789             0.0000000000
      2366       789  TIP3      H1             30.4125612922      -32.3802563765      -13.4514641586  W2        789             0.0000000000
      2367       789  TIP3      H2             31.6726912922      -33.0375163765      -12.9299741586  W2        789             0.0000000000
      2368       790  TIP3      OH2            32.9941712922      -33.7781163765      -11.5786041586  W2        790             0.0000000000
      2369       790  TIP3      H1             32.8973512922      -34.7303863765      -11.5844141586  W2        790             0.0000000000
      2370       790  TIP3      H2             32.6724812922      -33.5094363765      -10.7180541586  W2        790             0.0000000000
      2371       791  TIP3      OH2            22.8211012922      -32.5685363765      -12.5310541586  W2        791             0.0000000000
      2372       791  TIP3      H1             23.0328412922      -33.2749263765      -13.1413041586  W2        791             0.0000000000
      2373       791  TIP3      H2             22.7098512922      -33.0059363765      -11.6869341586  W2        791             0.0000000000
      2374       792  TIP3      OH2            27.6021212922      -36.5673763765      -13.5517041586  W2        792             0.0000000000
      2375       792  TIP3      H1             28.3139612922      -37.2071563765      -13.5657941586  W2        792             0.0000000000
      2376       792  TIP3      H2             27.5011612922      -36.3005463765      -14.4653941586  W2        792             0.0000000000
      2377       793  TIP3      OH2            27.9558712922      -34.8845363765      -11.4980741586  W2        793             0.0000000000
      2378       793  TIP3      H1             27.8240912922      -35.3601563765      -12.3182241586  W2        793             0.0000000000
      2379       793  TIP3      H2             27.3566112922      -34.1401763765      -11.5533641586  W2        793             0.0000000000
      2380       794  TIP3      OH2            27.5021012922      -18.0015063765      -28.3216741586  W2        794             0.0000000000
      2381       794  TIP3      H1             28.4351712922      -17.8436363765      -28.1778341586  W2        794             0.0000000000
      2382       794  TIP3      H2             27.2379812922      -17.3262063765      -28.9465241586  W2        794             0.0000000000
      2383       795  TIP3      OH2            21.0705912922      -23.3651263765      -28.8388641586  W2        795             0.0000000000
      2384       795  TIP3      H1             21.9845112922      -23.2862363765      -28.5654741586  W2        795             0.0000000000
      2385       795  TIP3      H2             21.0779012922      -24.0521663765      -29.5053041586  W2        795             0.0000000000
      2386       796  TIP3      OH2            19.7196512922      -17.9722763765      -23.7614741586  W2        796             0.0000000000
      2387       796  TIP3      H1             19.0723612922      -18.4341063765      -24.2943541586  W2        796             0.0000000000
      2388       796  TIP3      H2             20.0741112922      -18.6439463765      -23.1788541586  W2        796             0.0000000000
      2389       797  TIP3      OH2            20.5895712922      -19.8915763765      -21.9568541586  W2        797             0.0000000000
      2390       797  TIP3      H1             20.2552512922      -20.7718463765      -21.7848341586  W2        797             0.0000000000
      2391       797  TIP3      H2             20.8118112922      -19.5460763765      -21.0922941586  W2        797             0.0000000000
      2392       798  TIP3      OH2            36.1520712922      -23.7250163765      -11.4164341586  W2        798             0.0000000000
      2393       798  TIP3      H1             35.2861812922      -23.8300463765      -11.0222041586  W2        798             0.0000000000
      2394       798  TIP3      H2             36.5286612922      -22.9666863765      -10.9699641586  W2        798             0.0000000000
      2395       799  TIP3      OH2            36.0929512922      -21.7524063765      -16.8240141586  W2        799             0.0000000000
      2396       799  TIP3      H1             35.4454812922      -21.4272563765      -16.1984941586  W2        799             0.0000000000
      2397       799  TIP3      H2             35.5753512922      -22.1926363765      -17.4981841586  W2        799             0.0000000000
      2398       800  TIP3      OH2            36.4648112922      -30.2744963765      -29.1367741586  W2        800             0.0000000000
      2399       800  TIP3      H1             36.5612512922      -29.6077963765      -29.8168041586  W2        800             0.0000000000
      2400       800  TIP3      H2             36.3247712922      -31.0898663765      -29.6182241586  W2        800             0.0000000000
      2401       801  TIP3      OH2            35.6342812922      -28.8942563765      -23.5157441586  W2        801             0.0000000000
      2402       801  TIP3      H1             35.4841612922      -29.8393963765      -23.5359641586  W2        801             0.0000000000
      2403       801  TIP3      H2             35.2807312922      -28.6131163765      -22.6718341586  W2        801             0.0000000000
      2404       802  TIP3      OH2            20.6695212922      -26.8160363765      -19.5053641586  W2        802             0.0000000000
      2405       802  TIP3      H1             20.8538112922      -26.8978663765      -20.4410741586  W2        802             0.0000000000
      2406       802  TIP3      H2             21.5188112922      -26.9403363765      -19.0817241586  W2        802             0.0000000000
      2407       803  TIP3      OH2            36.4905712922      -26.9239263765      -13.8769141586  W2        803             0.0000000000
      2408       803  TIP3      H1             37.0733012922      -27.6586963765      -13.6851941586  W2        803             0.0000000000
      2409       803  TIP3      H2             37.0545012922      -26.1518963765      -13.8303341586  W2        803             0.0000000000
      2410       804  TIP3      OH2            35.7121912922      -32.8665163765      -30.0192241586  W2        804             0.0000000000
      2411       804  TIP3      H1             36.3227712922      -33.2378363765      -29.3824041586  W2        804             0.0000000000
      2412       804  TIP3      H2             34.8753412922      -33.2878263765      -29.8232241586  W2        804             0.0000000000
      2413       805  TIP3      OH2            35.3447612922      -31.3116763765      -25.0532341586  W2        805             0.0000000000
      2414       805  TIP3      H1             35.6244712922      -32.2186363765      -24.9290641586  W2        805             0.0000000000
      2415       805  TIP3      H2             36.1039312922      -30.8775263765      -25.4423141586  W2        805             0.0000000000
      2416       806  TIP3      OH2            35.9565912922      -30.7299363765      -19.6173441586  W2        806             0.0000000000
      2417       806  TIP3      H1             36.8893912922      -30.5179463765      -19.6517441586  W2        806             0.0000000000
      2418       806  TIP3      H2             35.7213412922      -30.6287263765      -18.6950441586  W2        806             0.0000000000
      2419       807  TIP3      OH2            35.9857812922      -29.9934063765      -16.8414041586  W2        807             0.0000000000
      2420       807  TIP3      H1             35.1429112922      -29.7253663765      -16.4754241586  W2        807             0.0000000000
      2421       807  TIP3      H2             36.4282112922      -29.1712163765      -17.0522941586  W2        807             0.0000000000
      2422       808  TIP3      OH2            20.2670012922      -31.5455363765      -13.3644841586  W2        808             0.0000000000
      2423       808  TIP3      H1             21.1864912922      -31.6677063765      -13.1281741586  W2        808             0.0000000000
      2424       808  TIP3      H2             19.8174512922      -32.2955663765      -12.9751341586  W2        808             0.0000000000
      2425       809  TIP3      OH2            35.9582412922      -34.0487463765      -25.0050341586  W2        809             0.0000000000
      2426       809  TIP3      H1             36.1407412922      -34.4975963765      -24.1795341586  W2        809             0.0000000000
      2427       809  TIP3      H2             35.3585312922      -34.6333063765      -25.4685741586  W2        809             0.0000000000
      2428       810  TIP3      OH2            21.4882512922      -33.2333763765      -20.4731941586  W2        810             0.0000000000
      2429       810  TIP3      H1             21.9334112922      -34.0251263765      -20.1712241586  W2        810             0.0000000000
      2430       810  TIP3      H2             21.9545512922      -32.5168563765      -20.0426341586  W2        810             0.0000000000
      2431       811  TIP3      OH2            19.7922812922      -30.2340763765      -19.4041741586  W2        811             0.0000000000
      2432       811  TIP3      H1             20.2842612922      -30.4550263765      -20.1949741586  W2        811             0.0000000000
      2433       811  TIP3      H2             20.1543712922      -29.3937363765      -19.1232241586  W2        811             0.0000000000
      2434       812  TIP3      OH2            20.1059312922      -33.9761663765      -25.3499341586  W2        812             0.0000000000
      2435       812  TIP3      H1             19.1807712922      -33.7675063765      -25.4793841586  W2        812             0.0000000000
      2436       812  TIP3      H2             20.5599212922      -33.4920863765      -26.0397041586  W2        812             0.0000000000
      2437       813  TIP3      OH2            34.8766512922      -18.9919963765      -23.4041941586  W2        813             0.0000000000
      2438       813  TIP3      H1             35.5289412922      -19.3397863765      -24.0122841586  W2        813             0.0000000000
      2439       813  TIP3      H2             35.3870312922      -18.5036763765      -22.7582241586  W2        813             0.0000000000
      2440       814  TIP3      OH2            20.0694712922      -35.2382663765      -17.0056841586  W2        814             0.0000000000
      2441       814  TIP3      H1             19.4045212922      -35.4842363765      -16.3625941586  W2        814             0.0000000000
      2442       814  TIP3      H2             19.6266012922      -34.6162263765      -17.5828841586  W2        814             0.0000000000
      2443       815  TIP3      OH2            22.2614012922      -22.0628563765      -12.8611041586  W2        815             0.0000000000
      2444       815  TIP3      H1             21.4406512922      -21.8882063765      -13.3216341586  W2        815             0.0000000000
      2445       815  TIP3      H2             22.0091812922      -22.1363863765      -11.9406641586  W2        815             0.0000000000
      2446       816  TIP3      OH2            25.2156912922      -21.0887363765      -16.6027041586  W2        816             0.0000000000
      2447       816  TIP3      H1             24.7908012922      -20.2788863765      -16.8852441586  W2        816             0.0000000000
      2448       816  TIP3      H2             26.1199712922      -21.0033263765      -16.9047241586  W2        816             0.0000000000
      2449       817  TIP3      OH2            29.5268312922      -19.6897363765      -13.6433341586  W2        817             0.0000000000
      2450       817  TIP3      H1             29.7115812922      -20.0231263765      -12.7653041586  W2        817             0.0000000000
      2451       817  TIP3      H2             30.3732812922      -19.3798763765      -13.9654141586  W2        817             0.0000000000
      2452       818  TIP3      OH2            31.8718712922      -18.4038463765      -14.3991941586  W2        818             0.0000000000
      2453       818  TIP3      H1             32.5487612922      -19.0366163765      -14.6392741586  W2        818             0.0000000000
      2454       818  TIP3      H2             32.1937512922      -18.0027963765      -13.5918641586  W2        818             0.0000000000
      2455       819  TIP3      OH2            22.6173612922      -17.8323463765      -16.5551741586  W2        819             0.0000000000
      2456       819  TIP3      H1             21.8970012922      -17.3922463765      -17.0064041586  W2        819             0.0000000000
      2457       819  TIP3      H2             22.2517612922      -18.0828763765      -15.7067741586  W2        819             0.0000000000
      2458       820  TIP3      OH2            25.0846212922      -18.2319563765      -17.5254541586  W2        820             0.0000000000
      2459       820  TIP3      H1             24.2198412922      -18.1601063765      -17.1214441586  W2        820             0.0000000000
      2460       820  TIP3      H2             25.0295212922      -17.6852263765      -18.3092041586  W2        820             0.0000000000
      2461       821  TIP3      OH2            29.7951812922      -18.3440663765      -18.3498541586  W2        821             0.0000000000
      2462       821  TIP3      H1             29.3385812922      -17.8150963765      -19.0040141586  W2        821             0.0000000000
      2463       821  TIP3      H2             29.9579812922      -17.7409263765      -17.6246241586  W2        821             0.0000000000
      2464       822  TIP3      OH2            32.1228112922      -19.4661063765      -17.4048241586  W2        822             0.0000000000
      2465       822  TIP3      H1             31.2181812922      -19.3010863765      -17.6706141586  W2        822             0.0000000000
      2466       822  TIP3      H2             32.5516712922      -18.6128863765      -17.4704841586  W2        822             0.0000000000
      2467       823  TIP3      OH2            34.7270012922      -17.8961963765      -17.1100441586  W2        823             0.0000000000
      2468       823  TIP3      H1             34.5452012922      -16.9803063765      -17.3205541586  W2        823             0.0000000000
      2469       823  TIP3      H2             34.9037812922      -18.3064863765      -17.9565841586  W2        823             0.0000000000
      2470       824  TIP3      OH2            22.0321712922      -19.2090963765      -19.6449941586  W2        824             0.0000000000
      2471       824  TIP3      H1             22.0137712922      -19.6345863765      -18.7877641586  W2        824             0.0000000000
      2472       824  TIP3      H2             22.8369612922      -19.5275963765      -20.0537741586  W2        824             0.0000000000
      2473       825  TIP3      OH2            24.1734812922      -20.4992263765      -20.9900041586  W2        825             0.0000000000
      2474       825  TIP3      H1             23.9545512922      -21.4154863765      -20.8204041586  W2        825             0.0000000000
      2475       825  TIP3      H2             24.9977012922      -20.3591863765      -20.5238641586  W2        825             0.0000000000
      2476       826  TIP3      OH2            26.7107312922      -20.0292963765      -20.1412041586  W2        826             0.0000000000
      2477       826  TIP3      H1             26.9233012922      -20.9173963765      -20.4281141586  W2        826             0.0000000000
      2478       826  TIP3      H2             26.7752412922      -20.0635263765      -19.1868041586  W2        826             0.0000000000
      2479       827  TIP3      OH2            30.2191012922      -34.3652363765      -20.9968741586  W2        827             0.0000000000
      2480       827  TIP3      H1             29.5447812922      -34.9946763765      -20.7412941586  W2        827             0.0000000000
      2481       827  TIP3      H2             30.7830212922      -34.8493463765      -21.6000841586  W2        827             0.0000000000
      2482       828  TIP3      OH2            35.3618212922      -36.2578363765      -20.8841641586  W2        828             0.0000000000
      2483       828  TIP3      H1             35.9655812922      -35.7102963765      -21.3860641586  W2        828             0.0000000000
      2484       828  TIP3      H2             34.4920212922      -35.9387963765      -21.1247541586  W2        828             0.0000000000
      2485       829  TIP3      OH2            22.5458512922      -35.7312063765      -23.1748841586  W2        829             0.0000000000
      2486       829  TIP3      H1             21.7688312922      -35.9657163765      -23.6822941586  W2        829             0.0000000000
      2487       829  TIP3      H2             23.0762112922      -36.5279963765      -23.1660841586  W2        829             0.0000000000
      2488       830  TIP3      OH2            21.3821912922      -35.9333963765      -27.3712741586  W2        830             0.0000000000
      2489       830  TIP3      H1             21.8212612922      -35.3223463765      -27.9629241586  W2        830             0.0000000000
      2490       830  TIP3      H2             20.7484312922      -35.3949863765      -26.8972741586  W2        830             0.0000000000
      2491       831  TIP3      OH2            27.1251112922      -35.8044963765      -23.3615741586  W2        831             0.0000000000
      2492       831  TIP3      H1             27.9994512922      -35.4160663765      -23.3911441586  W2        831             0.0000000000
      2493       831  TIP3      H2             26.9891912922      -36.0197163765      -22.4388541586  W2        831             0.0000000000
      2494       832  TIP3      OH2            32.6819512922      -35.7745163765      -21.7124041586  W2        832             0.0000000000
      2495       832  TIP3      H1             32.7581112922      -35.6793563765      -22.6618041586  W2        832             0.0000000000
      2496       832  TIP3      H2             32.4068712922      -36.6822263765      -21.5834941586  W2        832             0.0000000000
      2497       833  TIP3      OH2            34.0352112922      -35.7487363765      -26.0199041586  W2        833             0.0000000000
      2498       833  TIP3      H1             33.3323212922      -35.1338163765      -26.2297641586  W2        833             0.0000000000
      2499       833  TIP3      H2             33.5903512922      -36.5860663765      -25.8888141586  W2        833             0.0000000000
      2500       834  TIP3      OH2            21.2831412922      -19.9851763765      -26.4737641586  W2        834             0.0000000000
      2501       834  TIP3      H1             20.5981312922      -20.0232863765      -27.1412541586  W2        834             0.0000000000
      2502       834  TIP3      H2             21.2868612922      -19.0724163765      -26.1855541586  W2        834             0.0000000000
      2503       835  TIP3      OH2            23.2431012922      -34.0172463765      -28.9288641586  W2        835             0.0000000000
      2504       835  TIP3      H1             23.7344412922      -34.6470063765      -29.4563141586  W2        835             0.0000000000
      2505       835  TIP3      H2             23.8667312922      -33.7213063765      -28.2657441586  W2        835             0.0000000000
      2506       836  TIP3      OH2            28.2691112922      -33.7240963765      -26.4718141586  W2        836             0.0000000000
      2507       836  TIP3      H1             28.4472412922      -34.3707763765      -25.7889541586  W2        836             0.0000000000
      2508       836  TIP3      H2             28.2157312922      -32.8903263765      -26.0047041586  W2        836             0.0000000000
      2509       837  TIP3      OH2            30.1474912922      -18.7756863765      -28.0761441586  W2        837             0.0000000000
      2510       837  TIP3      H1             31.0135112922      -18.4089463765      -28.2543241586  W2        837             0.0000000000
      2511       837  TIP3      H2             29.9007712922      -19.2148863765      -28.8900641586  W2        837             0.0000000000
      2512       838  TIP3      OH2            22.5036512922      -35.2170163765      -13.6572641586  W2        838             0.0000000000
      2513       838  TIP3      H1             22.1374712922      -35.9827563765      -13.2147941586  W2        838             0.0000000000
      2514       838  TIP3      H2             23.4165012922      -35.1879963765      -13.3707541586  W2        838             0.0000000000
      2515       839  TIP3      OH2            24.4767312922      -35.8665763765      -12.1215541586  W2        839             0.0000000000
      2516       839  TIP3      H1             25.3750912922      -36.1405563765      -12.3062141586  W2        839             0.0000000000
      2517       839  TIP3      H2             24.0900412922      -36.6089763765      -11.6572941586  W2        839             0.0000000000
      2518       840  TIP3      OH2            23.1012612922      -19.0650963765      -29.4485541586  W2        840             0.0000000000
      2519       840  TIP3      H1             22.8337212922      -18.7788063765      -28.5752441586  W2        840             0.0000000000
      2520       840  TIP3      H2             23.8725212922      -19.6111763765      -29.2963041586  W2        840             0.0000000000
      2521       841  TIP3      OH2            32.8979612922      -36.5340463765      -11.9392741586  W2        841             0.0000000000
      2522       841  TIP3      H1             32.9746812922      -36.9599763765      -11.0855041586  W2        841             0.0000000000
      2523       841  TIP3      H2             33.7916212922      -36.5205763765      -12.2819241586  W2        841             0.0000000000
      2524       842  TIP3      OH2            36.0740712922      -20.4614163765      -13.2468541586  W2        842             0.0000000000
      2525       842  TIP3      H1             35.2922612922      -20.6476163765      -13.7667941586  W2        842             0.0000000000
      2526       842  TIP3      H2             36.0020612922      -19.5319863765      -13.0296041586  W2        842             0.0000000000
      2527       843  TIP3      OH2           -24.9438887078       -7.7189763765      -23.2161341586  W2        843             0.0000000000
      2528       843  TIP3      H1            -24.8547787078       -6.7751563765      -23.3484241586  W2        843             0.0000000000
      2529       843  TIP3      H2            -25.5821287078       -7.9943363765      -23.8741941586  W2        843             0.0000000000
      2530       844  TIP3      OH2           -26.0107587078       -8.4639063765      -19.7973141586  W2        844             0.0000000000
      2531       844  TIP3      H1            -26.0490087078       -9.1102763765      -19.0923541586  W2        844             0.0000000000
      2532       844  TIP3      H2            -26.3331087078       -8.9304663765      -20.5684441586  W2        844             0.0000000000
      2533       845  TIP3      OH2           -33.6422587078       -8.8496963765      -18.2043241586  W2        845             0.0000000000
      2534       845  TIP3      H1            -33.6010487078       -9.4753663765      -17.4810841586  W2        845             0.0000000000
      2535       845  TIP3      H2            -32.9394887078       -8.2258363765      -18.0222841586  W2        845             0.0000000000
      2536       846  TIP3      OH2           -22.3047387078       -5.5248663765      -21.4958041586  W2        846             0.0000000000
      2537       846  TIP3      H1            -22.7454687078       -6.2452663765      -21.0452441586  W2        846             0.0000000000
      2538       846  TIP3      H2            -22.3177687078       -4.8041463765      -20.8660341586  W2        846             0.0000000000
      2539       847  TIP3      OH2           -32.7189487078       -4.3998063765      -19.6694141586  W2        847             0.0000000000
      2540       847  TIP3      H1            -33.0884287078       -5.2017563765      -20.0389841586  W2        847             0.0000000000
      2541       847  TIP3      H2            -31.7778387078       -4.5683163765      -19.6230741586  W2        847             0.0000000000
      2542       848  TIP3      OH2           -36.1088987078      -10.7395463765      -24.2765341586  W2        848             0.0000000000
      2543       848  TIP3      H1            -36.5565587078       -9.8936763765      -24.2948841586  W2        848             0.0000000000
      2544       848  TIP3      H2            -36.6697787078      -11.3191263765      -24.7920241586  W2        848             0.0000000000
      2545       849  TIP3      OH2           -35.3982887078       -8.5775863765      -22.1507341586  W2        849             0.0000000000
      2546       849  TIP3      H1            -35.1849387078       -9.3474263765      -21.6234341586  W2        849             0.0000000000
      2547       849  TIP3      H2            -34.6605287078       -8.4879163765      -22.7539741586  W2        849             0.0000000000
      2548       850  TIP3      OH2           -25.1931887078       -0.4206963765      -21.2837641586  W2        850             0.0000000000
      2549       850  TIP3      H1            -24.5735487078       -1.0972263765      -21.5568441586  W2        850             0.0000000000
      2550       850  TIP3      H2            -25.4014487078       -0.6386163765      -20.3752741586  W2        850             0.0000000000
      2551       851  TIP3      OH2           -27.6213187078       -6.0317663765      -19.3912141586  W2        851             0.0000000000
      2552       851  TIP3      H1            -27.3175287078       -6.7176263765      -19.9858041586  W2        851             0.0000000000
      2553       851  TIP3      H2            -26.8999187078       -5.9128963765      -18.7734141586  W2        851             0.0000000000
      2554       852  TIP3      OH2           -18.9583387078      -14.4302363765      -18.5305941586  W2        852             0.0000000000
      2555       852  TIP3      H1            -18.9091187078      -13.8201163765      -17.7946841586  W2        852             0.0000000000
      2556       852  TIP3      H2            -18.5328287078      -13.9691463765      -19.2534841586  W2        852             0.0000000000
      2557       853  TIP3      OH2           -24.4806187078      -11.6375263765      -19.0637341586  W2        853             0.0000000000
      2558       853  TIP3      H1            -24.3380287078      -12.5838263765      -19.0435741586  W2        853             0.0000000000
      2559       853  TIP3      H2            -24.5867187078      -11.4305463765      -19.9922441586  W2        853             0.0000000000
      2560       854  TIP3      OH2           -31.3257887078      -13.5358863765      -21.7912541586  W2        854             0.0000000000
      2561       854  TIP3      H1            -31.2826787078      -12.6760363765      -22.2096241586  W2        854             0.0000000000
      2562       854  TIP3      H2            -31.7833787078      -14.0884163765      -22.4249341586  W2        854             0.0000000000
      2563       855  TIP3      OH2           -23.6035187078      -13.4053263765      -23.3904241586  W2        855             0.0000000000
      2564       855  TIP3      H1            -22.9570887078      -13.7340063765      -22.7656641586  W2        855             0.0000000000
      2565       855  TIP3      H2            -23.0935787078      -12.8874263765      -24.0132841586  W2        855             0.0000000000
      2566       856  TIP3      OH2           -34.7056387078      -11.1393063765      -21.0291141586  W2        856             0.0000000000
      2567       856  TIP3      H1            -34.0519787078      -11.6891363765      -20.5971041586  W2        856             0.0000000000
      2568       856  TIP3      H2            -34.6817087078      -11.4134063765      -21.9459141586  W2        856             0.0000000000
      2569       857  TIP3      OH2           -29.5491887078       -9.5891763765      -21.8139641586  W2        857             0.0000000000
      2570       857  TIP3      H1            -28.9330887078      -10.1156363765      -21.3045641586  W2        857             0.0000000000
      2571       857  TIP3      H2            -30.1353087078      -10.2293063765      -22.2176041586  W2        857             0.0000000000
      2572       858  TIP3      OH2           -18.5668787078      -12.9523163765      -16.2946141586  W2        858             0.0000000000
      2573       858  TIP3      H1            -19.2554187078      -12.2942463765      -16.3899541586  W2        858             0.0000000000
      2574       858  TIP3      H2            -18.5514187078      -13.1495263765      -15.3580741586  W2        858             0.0000000000
      2575       859  TIP3      OH2           -32.5155987078      -14.6180463765      -17.7171741586  W2        859             0.0000000000
      2576       859  TIP3      H1            -32.7344287078      -14.0879863765      -18.4835741586  W2        859             0.0000000000
      2577       859  TIP3      H2            -33.1835087078      -14.3914963765      -17.0700341586  W2        859             0.0000000000
      2578       860  TIP3      OH2           -25.1466187078       -5.1179363765      -24.1732641586  W2        860             0.0000000000
      2579       860  TIP3      H1            -25.4421087078       -5.4407063765      -25.0245741586  W2        860             0.0000000000
      2580       860  TIP3      H2            -25.4708387078       -4.2182663765      -24.1320041586  W2        860             0.0000000000
      2581       861  TIP3      OH2           -29.9464587078       -6.9424763765      -17.4298041586  W2        861             0.0000000000
      2582       861  TIP3      H1            -30.6865487078       -6.3443263765      -17.3262841586  W2        861             0.0000000000
      2583       861  TIP3      H2            -29.2325087078       -6.3885163765      -17.7454441586  W2        861             0.0000000000
      2584       862  TIP3      OH2           -21.8396787078      -14.1143963765      -21.4098341586  W2        862             0.0000000000
      2585       862  TIP3      H1            -22.0548787078      -14.8800563765      -20.8772341586  W2        862             0.0000000000
      2586       862  TIP3      H2            -21.1839387078      -13.6419363765      -20.8969841586  W2        862             0.0000000000
      2587       863  TIP3      OH2           -32.9218687078      -12.7258663765      -19.7649541586  W2        863             0.0000000000
      2588       863  TIP3      H1            -32.3082387078      -12.0931063765      -19.3917141586  W2        863             0.0000000000
      2589       863  TIP3      H2            -32.4097987078      -13.1983663765      -20.4212641586  W2        863             0.0000000000
      2590       864  TIP3      OH2           -31.5390287078       -4.9781763765      -16.6426541586  W2        864             0.0000000000
      2591       864  TIP3      H1            -31.5442687078       -4.0988263765      -17.0207241586  W2        864             0.0000000000
      2592       864  TIP3      H2            -32.3926187078       -5.0617663765      -16.2176641586  W2        864             0.0000000000
      2593       865  TIP3      OH2           -35.4179387078       -5.3073863765      -25.8607241586  W2        865             0.0000000000
      2594       865  TIP3      H1            -35.6898487078       -5.0782863765      -26.7494341586  W2        865             0.0000000000
      2595       865  TIP3      H2            -35.3723687078       -4.4695063765      -25.4001941586  W2        865             0.0000000000
      2596       866  TIP3      OH2           -21.7929687078       -3.6857963765      -19.1478741586  W2        866             0.0000000000
      2597       866  TIP3      H1            -22.7345987078       -3.6274063765      -18.9861841586  W2        866             0.0000000000
      2598       866  TIP3      H2            -21.5163587078       -2.7797463765      -19.2849041586  W2        866             0.0000000000
      2599       867  TIP3      OH2           -21.4922687078      -15.3992663765      -17.7304841586  W2        867             0.0000000000
      2600       867  TIP3      H1            -22.2283487078      -14.7885563765      -17.7683541586  W2        867             0.0000000000
      2601       867  TIP3      H2            -20.8088687078      -14.9843663765      -18.2568441586  W2        867             0.0000000000
      2602       868  TIP3      OH2           -28.4891287078      -17.3125363765      -20.2646841586  W2        868             0.0000000000
      2603       868  TIP3      H1            -28.6067087078      -18.2609363765      -20.3188541586  W2        868             0.0000000000
      2604       868  TIP3      H2            -29.3441187078      -16.9799263765      -19.9915741586  W2        868             0.0000000000
      2605       869  TIP3      OH2           -23.5408487078       -1.9044463765      -22.5227141586  W2        869             0.0000000000
      2606       869  TIP3      H1            -23.1156187078       -2.6116563765      -23.0077541586  W2        869             0.0000000000
      2607       869  TIP3      H2            -23.2238487078       -1.1031763765      -22.9394941586  W2        869             0.0000000000
      2608       870  TIP3      OH2           -22.3811987078       -4.0035963765      -24.0140541586  W2        870             0.0000000000
      2609       870  TIP3      H1            -22.6387187078       -4.6935863765      -24.6254641586  W2        870             0.0000000000
      2610       870  TIP3      H2            -22.3101187078       -4.4464763765      -23.1684641586  W2        870             0.0000000000
      2611       871  TIP3      OH2           -20.6951787078       -5.4369263765      -15.5367041586  W2        871             0.0000000000
      2612       871  TIP3      H1            -20.5555487078       -6.0286763765      -16.2760041586  W2        871             0.0000000000
      2613       871  TIP3      H2            -20.5278987078       -4.5643363765      -15.8928241586  W2        871             0.0000000000
      2614       872  TIP3      OH2           -26.2226387078       -8.4749763765      -25.7641041586  W2        872             0.0000000000
      2615       872  TIP3      H1            -26.9340887078       -7.9400063765      -26.1160541586  W2        872             0.0000000000
      2616       872  TIP3      H2            -25.5316787078       -8.4197663765      -26.4242141586  W2        872             0.0000000000
      2617       873  TIP3      OH2           -26.1687187078      -10.0175463765      -28.7256041586  W2        873             0.0000000000
      2618       873  TIP3      H1            -25.4677287078       -9.9948563765      -28.0742041586  W2        873             0.0000000000
      2619       873  TIP3      H2            -25.8664287078      -10.6455763765      -29.3816741586  W2        873             0.0000000000
      2620       874  TIP3      OH2           -18.8532487078       -9.0971263765      -17.4706641586  W2        874             0.0000000000
      2621       874  TIP3      H1            -19.5058387078       -8.4025663765      -17.3815741586  W2        874             0.0000000000
      2622       874  TIP3      H2            -18.3882187078       -8.8870363765      -18.2805041586  W2        874             0.0000000000
      2623       875  TIP3      OH2           -22.8168687078       -8.2656463765      -24.8125141586  W2        875             0.0000000000
      2624       875  TIP3      H1            -23.5487687078       -8.0372763765      -24.2394541586  W2        875             0.0000000000
      2625       875  TIP3      H2            -22.3696487078       -8.9793763765      -24.3577641586  W2        875             0.0000000000
      2626       876  TIP3      OH2           -22.9195187078      -10.0913863765      -15.7448141586  W2        876             0.0000000000
      2627       876  TIP3      H1            -22.8396087078       -9.3279463765      -15.1729641586  W2        876             0.0000000000
      2628       876  TIP3      H2            -23.5207487078       -9.8121463765      -16.4353041586  W2        876             0.0000000000
      2629       877  TIP3      OH2           -31.1714987078       -7.6350263765      -22.9300141586  W2        877             0.0000000000
      2630       877  TIP3      H1            -31.5019787078       -8.0056863765      -23.7483141586  W2        877             0.0000000000
      2631       877  TIP3      H2            -30.5830887078       -8.3056263765      -22.5831841586  W2        877             0.0000000000
      2632       878  TIP3      OH2           -29.8047487078       -4.2069663765      -20.2487941586  W2        878             0.0000000000
      2633       878  TIP3      H1            -29.8996187078       -4.7856563765      -21.0053341586  W2        878             0.0000000000
      2634       878  TIP3      H2            -29.0753887078       -4.5783963765      -19.7525141586  W2        878             0.0000000000
      2635       879  TIP3      OH2           -30.8049487078       -8.8664663765      -19.2965141586  W2        879             0.0000000000
      2636       879  TIP3      H1            -30.2396987078       -8.7450463765      -20.0593941586  W2        879             0.0000000000
      2637       879  TIP3      H2            -30.4860587078       -8.2289663765      -18.6576641586  W2        879             0.0000000000
      2638       880  TIP3      OH2           -24.4957287078       -3.3632763765      -18.5624641586  W2        880             0.0000000000
      2639       880  TIP3      H1            -24.7360687078       -2.7009663765      -17.9145441586  W2        880             0.0000000000
      2640       880  TIP3      H2            -24.6939087078       -4.1977563765      -18.1375041586  W2        880             0.0000000000
      2641       881  TIP3      OH2           -29.9248787078       -4.4671963765      -14.5793241586  W2        881             0.0000000000
      2642       881  TIP3      H1            -30.2361287078       -3.6848763765      -14.1240041586  W2        881             0.0000000000
      2643       881  TIP3      H2            -30.5748587078       -4.6202863765      -15.2651241586  W2        881             0.0000000000
      2644       882  TIP3      OH2           -23.9459187078       -9.1033563765      -27.1273941586  W2        882             0.0000000000
      2645       882  TIP3      H1            -23.3663687078       -8.9533263765      -26.3805041586  W2        882             0.0000000000
      2646       882  TIP3      H2            -23.5319187078       -8.6326163765      -27.8507541586  W2        882             0.0000000000
      2647       883  TIP3      OH2           -33.0048887078       -8.2690863765      -15.3507541586  W2        883             0.0000000000
      2648       883  TIP3      H1            -32.9345687078       -7.6184063765      -14.6522541586  W2        883             0.0000000000
      2649       883  TIP3      H2            -33.8956687078       -8.1663363765      -15.6856641586  W2        883             0.0000000000
      2650       884  TIP3      OH2           -26.2194287078       -2.3665063765      -23.6920841586  W2        884             0.0000000000
      2651       884  TIP3      H1            -25.7456687078       -2.0708763765      -22.9146641586  W2        884             0.0000000000
      2652       884  TIP3      H2            -26.7824987078       -1.6283463765      -23.9251241586  W2        884             0.0000000000
      2653       885  TIP3      OH2           -31.6852887078       -2.3956963765      -13.8159441586  W2        885             0.0000000000
      2654       885  TIP3      H1            -31.6777587078       -2.5317263765      -14.7633941586  W2        885             0.0000000000
      2655       885  TIP3      H2            -32.6012487078       -2.5128863765      -13.5639441586  W2        885             0.0000000000
      2656       886  TIP3      OH2           -20.2470787078      -17.3533163765      -27.3144241586  W2        886             0.0000000000
      2657       886  TIP3      H1            -21.1470087078      -17.2144163765      -27.0193641586  W2        886             0.0000000000
      2658       886  TIP3      H2            -19.9952387078      -16.5218563765      -27.7162541586  W2        886             0.0000000000
      2659       887  TIP3      OH2           -32.1812287078       -8.5655963765      -25.3407341586  W2        887             0.0000000000
      2660       887  TIP3      H1            -32.4730987078       -7.7974263765      -25.8316041586  W2        887             0.0000000000
      2661       887  TIP3      H2            -32.8557087078       -9.2249763765      -25.5035941586  W2        887             0.0000000000
      2662       888  TIP3      OH2           -19.0579387078       -2.9870763765      -28.9380341586  W2        888             0.0000000000
      2663       888  TIP3      H1            -18.9845887078       -2.0480563765      -28.7675041586  W2        888             0.0000000000
      2664       888  TIP3      H2            -18.1524287078       -3.2922163765      -28.9943041586  W2        888             0.0000000000
      2665       889  TIP3      OH2           -36.0882187078       -6.2026763765      -16.5257541586  W2        889             0.0000000000
      2666       889  TIP3      H1            -36.5893787078       -6.2307363765      -17.3407841586  W2        889             0.0000000000
      2667       889  TIP3      H2            -36.0828487078       -7.1083563765      -16.2160241586  W2        889             0.0000000000
      2668       890  TIP3      OH2           -36.3379487078       -3.4222963765      -19.6417341586  W2        890             0.0000000000
      2669       890  TIP3      H1            -35.3918887078       -3.5665963765      -19.6607841586  W2        890             0.0000000000
      2670       890  TIP3      H2            -36.4503187078       -2.6380163765      -19.1046141586  W2        890             0.0000000000
      2671       891  TIP3      OH2           -18.1400987078       -2.7563263765      -13.9593641586  W2        891             0.0000000000
      2672       891  TIP3      H1            -18.1894187078       -3.7115163765      -13.9966041586  W2        891             0.0000000000
      2673       891  TIP3      H2            -18.9668687078       -2.4887963765      -13.5579841586  W2        891             0.0000000000
      2674       892  TIP3      OH2           -27.1616987078       -3.1824063765      -15.0832241586  W2        892             0.0000000000
      2675       892  TIP3      H1            -27.0742387078       -2.3559463765      -14.6083141586  W2        892             0.0000000000
      2676       892  TIP3      H2            -28.0251887078       -3.5120263765      -14.8342941586  W2        892             0.0000000000
      2677       893  TIP3      OH2           -26.7471187078        0.5899636235      -25.2771641586  W2        893             0.0000000000
      2678       893  TIP3      H1            -26.8225187078        0.4686836235      -26.2236441586  W2        893             0.0000000000
      2679       893  TIP3      H2            -26.7142487078        1.5392336235      -25.1587041586  W2        893             0.0000000000
      2680       894  TIP3      OH2           -33.0937387078       -0.6213363765      -23.4962641586  W2        894             0.0000000000
      2681       894  TIP3      H1            -32.9416987078       -0.9692963765      -22.6176141586  W2        894             0.0000000000
      2682       894  TIP3      H2            -33.9446987078       -0.9776063765      -23.7515441586  W2        894             0.0000000000
      2683       895  TIP3      OH2           -23.6455187078       -0.2560163765      -28.2749241586  W2        895             0.0000000000
      2684       895  TIP3      H1            -23.2706787078       -1.0004063765      -28.7456641586  W2        895             0.0000000000
      2685       895  TIP3      H2            -23.6411487078       -0.5259563765      -27.3565941586  W2        895             0.0000000000
      2686       896  TIP3      OH2           -23.9767087078       -0.3303063765      -25.5257041586  W2        896             0.0000000000
      2687       896  TIP3      H1            -24.9117287078       -0.2301163765      -25.3470041586  W2        896             0.0000000000
      2688       896  TIP3      H2            -23.6965187078       -1.0397063765      -24.9473841586  W2        896             0.0000000000
      2689       897  TIP3      OH2           -20.9881187078      -11.2630763765      -13.4791441586  W2        897             0.0000000000
      2690       897  TIP3      H1            -21.3954387078      -10.7825163765      -14.1998141586  W2        897             0.0000000000
      2691       897  TIP3      H2            -20.9475487078      -12.1684763765      -13.7870641586  W2        897             0.0000000000
      2692       898  TIP3      OH2           -33.8391687078       -4.8791363765      -15.4824741586  W2        898             0.0000000000
      2693       898  TIP3      H1            -33.6230387078       -5.2405763765      -14.6228941586  W2        898             0.0000000000
      2694       898  TIP3      H2            -34.6946987078       -5.2537563765      -15.6921241586  W2        898             0.0000000000
      2695       899  TIP3      OH2           -31.2203687078      -16.4090863765      -19.4870541586  W2        899             0.0000000000
      2696       899  TIP3      H1            -32.0819987078      -16.4962663765      -19.8947641586  W2        899             0.0000000000
      2697       899  TIP3      H2            -31.2427987078      -15.5530763765      -19.0592941586  W2        899             0.0000000000
      2698       900  TIP3      OH2           -26.5575887078      -16.6870463765      -16.1123541586  W2        900             0.0000000000
      2699       900  TIP3      H1            -26.1372787078      -17.1023363765      -15.3592941586  W2        900             0.0000000000
      2700       900  TIP3      H2            -27.4906287078      -16.8657163765      -15.9951541586  W2        900             0.0000000000
      2701       901  TIP3      OH2           -23.2310987078      -12.9315263765      -15.2589041586  W2        901             0.0000000000
      2702       901  TIP3      H1            -23.7451487078      -13.0573063765      -14.4613041586  W2        901             0.0000000000
      2703       901  TIP3      H2            -23.3866287078      -12.0192163765      -15.5032841586  W2        901             0.0000000000
      2704       902  TIP3      OH2           -22.4686087078       -8.0705263765      -29.4976041586  W2        902             0.0000000000
      2705       902  TIP3      H1            -22.4265287078       -8.2931363765      -30.4276041586  W2        902             0.0000000000
      2706       902  TIP3      H2            -21.6193987078       -7.6718163765      -29.3076141586  W2        902             0.0000000000
      2707       903  TIP3      OH2           -26.8958587078      -14.1947063765      -28.8272741586  W2        903             0.0000000000
      2708       903  TIP3      H1            -27.1493787078      -14.1755463765      -27.9044641586  W2        903             0.0000000000
      2709       903  TIP3      H2            -27.1526487078      -15.0661663765      -29.1286541586  W2        903             0.0000000000
      2710       904  TIP3      OH2           -31.1293587078      -11.4436363765      -18.3920341586  W2        904             0.0000000000
      2711       904  TIP3      H1            -31.7711487078      -11.4839063765      -17.6830241586  W2        904             0.0000000000
      2712       904  TIP3      H2            -31.0921587078      -10.5171663765      -18.6297341586  W2        904             0.0000000000
      2713       905  TIP3      OH2           -31.1324487078      -11.2226263765      -23.4800341586  W2        905             0.0000000000
      2714       905  TIP3      H1            -32.0251587078      -11.5630163765      -23.5386541586  W2        905             0.0000000000
      2715       905  TIP3      H2            -30.6817887078      -11.5995363765      -24.2357141586  W2        905             0.0000000000
      2716       906  TIP3      OH2           -25.5968987078      -10.8065963765      -24.6629541586  W2        906             0.0000000000
      2717       906  TIP3      H1            -26.0058687078       -9.9917363765      -24.9544741586  W2        906             0.0000000000
      2718       906  TIP3      H2            -24.8762787078      -10.9465863765      -25.2772441586  W2        906             0.0000000000
      2719       907  TIP3      OH2           -26.4947387078      -10.6309563765      -13.1748841586  W2        907             0.0000000000
      2720       907  TIP3      H1            -27.0573587078      -11.3357963765      -12.8541041586  W2        907             0.0000000000
      2721       907  TIP3      H2            -25.6683987078      -10.7517663765      -12.7071241586  W2        907             0.0000000000
      2722       908  TIP3      OH2           -24.5921287078      -11.3605563765      -21.8489841586  W2        908             0.0000000000
      2723       908  TIP3      H1            -24.7876787078      -10.7548763765      -22.5639241586  W2        908             0.0000000000
      2724       908  TIP3      H2            -24.4108687078      -12.1940363765      -22.2833541586  W2        908             0.0000000000
      2725       909  TIP3      OH2           -33.3793087078      -11.1232863765      -16.5248341586  W2        909             0.0000000000
      2726       909  TIP3      H1            -33.4173687078      -10.7231263765      -15.6561241586  W2        909             0.0000000000
      2727       909  TIP3      H2            -33.8701987078      -11.9400463765      -16.4345441586  W2        909             0.0000000000
      2728       910  TIP3      OH2           -30.0135687078      -13.7490563765      -29.7262341586  W2        910             0.0000000000
      2729       910  TIP3      H1            -30.4444987078      -14.1940463765      -28.9964941586  W2        910             0.0000000000
      2730       910  TIP3      H2            -30.7316987078      -13.3774263765      -30.2384841586  W2        910             0.0000000000
      2731       911  TIP3      OH2           -36.7712287078      -14.0071063765      -22.6743641586  W2        911             0.0000000000
      2732       911  TIP3      H1            -36.1404587078      -14.0358963765      -21.9549741586  W2        911             0.0000000000
      2733       911  TIP3      H2            -36.3217987078      -14.4322363765      -23.4047741586  W2        911             0.0000000000
      2734       912  TIP3      OH2           -35.4970187078      -13.2609063765      -27.2503241586  W2        912             0.0000000000
      2735       912  TIP3      H1            -35.0228487078      -12.6699163765      -27.8352341586  W2        912             0.0000000000
      2736       912  TIP3      H2            -36.2143787078      -12.7306163765      -26.9033141586  W2        912             0.0000000000
      2737       913  TIP3      OH2           -25.3282087078       -9.7224263765      -17.1777441586  W2        913             0.0000000000
      2738       913  TIP3      H1            -25.0047287078      -10.3534563765      -17.8206941586  W2        913             0.0000000000
      2739       913  TIP3      H2            -25.7682787078      -10.2572063765      -16.5170041586  W2        913             0.0000000000
      2740       914  TIP3      OH2           -28.5509187078      -13.7948763765      -22.3936241586  W2        914             0.0000000000
      2741       914  TIP3      H1            -29.4618087078      -13.7381963765      -22.1050241586  W2        914             0.0000000000
      2742       914  TIP3      H2            -28.0456287078      -13.8553263765      -21.5829041586  W2        914             0.0000000000
      2743       915  TIP3      OH2           -33.7225787078      -12.1662463765      -23.5668641586  W2        915             0.0000000000
      2744       915  TIP3      H1            -34.6117787078      -12.0666963765      -23.9069041586  W2        915             0.0000000000
      2745       915  TIP3      H2            -33.4260887078      -13.0079463765      -23.9130741586  W2        915             0.0000000000
      2746       916  TIP3      OH2           -30.0693987078      -12.1659863765      -25.9104041586  W2        916             0.0000000000
      2747       916  TIP3      H1            -29.1378487078      -12.0369863765      -25.7320941586  W2        916             0.0000000000
      2748       916  TIP3      H2            -30.2843687078      -11.4965563765      -26.5599341586  W2        916             0.0000000000
      2749       917  TIP3      OH2           -24.1457287078      -14.5602463765      -19.1294441586  W2        917             0.0000000000
      2750       917  TIP3      H1            -24.8225687078      -14.4289363765      -18.4654741586  W2        917             0.0000000000
      2751       917  TIP3      H2            -24.6312387078      -14.7152963765      -19.9396741586  W2        917             0.0000000000
      2752       918  TIP3      OH2           -31.3953787078      -10.9717663765      -28.3437941586  W2        918             0.0000000000
      2753       918  TIP3      H1            -31.9378687078      -11.3513863765      -29.0350341586  W2        918             0.0000000000
      2754       918  TIP3      H2            -30.5618887078      -10.7772963765      -28.7723841586  W2        918             0.0000000000
      2755       919  TIP3      OH2           -20.8582187078        1.1112936235      -12.8526841586  W2        919             0.0000000000
      2756       919  TIP3      H1            -20.6583487078        1.5354836235      -13.6871541586  W2        919             0.0000000000
      2757       919  TIP3      H2            -20.2028487078        1.4551136235      -12.2456441586  W2        919             0.0000000000
      2758       920  TIP3      OH2           -33.2602387078       -6.4145763765      -13.2446341586  W2        920             0.0000000000
      2759       920  TIP3      H1            -32.5279987078       -6.1599863765      -12.6831841586  W2        920             0.0000000000
      2760       920  TIP3      H2            -34.0403687078       -6.2100363765      -12.7290941586  W2        920             0.0000000000
      2761       921  TIP3      OH2           -27.2309487078      -11.0075763765      -20.5066641586  W2        921             0.0000000000
      2762       921  TIP3      H1            -26.6666087078      -11.5539163765      -21.0537041586  W2        921             0.0000000000
      2763       921  TIP3      H2            -27.3786087078      -11.5293863765      -19.7179041586  W2        921             0.0000000000
      2764       922  TIP3      OH2           -32.2289787078      -14.8709663765      -24.0881841586  W2        922             0.0000000000
      2765       922  TIP3      H1            -32.5460287078      -15.7734363765      -24.1236441586  W2        922             0.0000000000
      2766       922  TIP3      H2            -31.4475687078      -14.8692263765      -24.6410241586  W2        922             0.0000000000
      2767       923  TIP3      OH2           -28.6043587078      -12.6189663765      -18.0926241586  W2        923             0.0000000000
      2768       923  TIP3      H1            -29.4398287078      -12.1650163765      -17.9823841586  W2        923             0.0000000000
      2769       923  TIP3      H2            -28.0802987078      -12.3431163765      -17.3406341586  W2        923             0.0000000000
      2770       924  TIP3      OH2           -28.0600987078       -6.4061963765      -26.4079841586  W2        924             0.0000000000
      2771       924  TIP3      H1            -28.8049987078       -6.9136663765      -26.7301941586  W2        924             0.0000000000
      2772       924  TIP3      H2            -28.1943787078       -6.3573963765      -25.4615041586  W2        924             0.0000000000
      2773       925  TIP3      OH2           -20.9102087078       -7.2733763765      -17.6212241586  W2        925             0.0000000000
      2774       925  TIP3      H1            -20.2683287078       -6.8167463765      -18.1650041586  W2        925             0.0000000000
      2775       925  TIP3      H2            -21.7405187078       -7.1601363765      -18.0838141586  W2        925             0.0000000000
      2776       926  TIP3      OH2           -24.1624187078      -13.5922063765      -28.2087241586  W2        926             0.0000000000
      2777       926  TIP3      H1            -25.1009987078      -13.4806463765      -28.3598441586  W2        926             0.0000000000
      2778       926  TIP3      H2            -23.8652087078      -12.7355163765      -27.9021541586  W2        926             0.0000000000
      2779       927  TIP3      OH2           -26.5408887078       -6.2218663765      -15.1710741586  W2        927             0.0000000000
      2780       927  TIP3      H1            -26.8862787078       -6.6036263765      -14.3641141586  W2        927             0.0000000000
      2781       927  TIP3      H2            -26.7408787078       -5.2885063765      -15.0997841586  W2        927             0.0000000000
      2782       928  TIP3      OH2           -23.4440687078      -11.7249363765      -26.5479841586  W2        928             0.0000000000
      2783       928  TIP3      H1            -22.5521687078      -11.8624363765      -26.2288641586  W2        928             0.0000000000
      2784       928  TIP3      H2            -23.3877087078      -10.9343263765      -27.0846341586  W2        928             0.0000000000
      2785       929  TIP3      OH2           -32.9352687078       -7.1111963765      -20.6381941586  W2        929             0.0000000000
      2786       929  TIP3      H1            -32.1905487078       -7.1136263765      -21.2395441586  W2        929             0.0000000000
      2787       929  TIP3      H2            -32.8576087078       -7.9348163765      -20.1566841586  W2        929             0.0000000000
      2788       930  TIP3      OH2           -25.9346887078       -4.9477663765      -27.3825241586  W2        930             0.0000000000
      2789       930  TIP3      H1            -26.2298487078       -4.1209763765      -27.0010441586  W2        930             0.0000000000
      2790       930  TIP3      H2            -26.6376887078       -5.5670763765      -27.1863841586  W2        930             0.0000000000
      2791       931  TIP3      OH2           -35.9272987078       -8.6505063765      -15.3233441586  W2        931             0.0000000000
      2792       931  TIP3      H1            -35.7044387078       -9.0685463765      -14.4915941586  W2        931             0.0000000000
      2793       931  TIP3      H2            -36.5292887078       -9.2630063765      -15.7460641586  W2        931             0.0000000000
      2794       932  TIP3      OH2           -28.9108087078       -9.1335163765      -13.1103741586  W2        932             0.0000000000
      2795       932  TIP3      H1            -29.2067287078       -9.2992163765      -14.0054641586  W2        932             0.0000000000
      2796       932  TIP3      H2            -27.9792887078       -9.3534863765      -13.1209841586  W2        932             0.0000000000
      2797       933  TIP3      OH2           -24.2905287078       -3.7603163765      -15.2205741586  W2        933             0.0000000000
      2798       933  TIP3      H1            -25.1910987078       -3.5770563765      -15.4881841586  W2        933             0.0000000000
      2799       933  TIP3      H2            -24.2564187078       -3.5013863765      -14.2996941586  W2        933             0.0000000000
      2800       934  TIP3      OH2           -18.5591987078      -11.5155263765      -26.8533141586  W2        934             0.0000000000
      2801       934  TIP3      H1            -19.1135687078      -11.9117263765      -27.5255641586  W2        934             0.0000000000
      2802       934  TIP3      H2            -18.4588387078      -10.6050063765      -27.1309841586  W2        934             0.0000000000
      2803       935  TIP3      OH2           -18.5959987078       -5.7153563765      -14.0161641586  W2        935             0.0000000000
      2804       935  TIP3      H1            -19.4471487078       -5.4769763765      -14.3835241586  W2        935             0.0000000000
      2805       935  TIP3      H2            -18.0056587078       -5.7320363765      -14.7694541586  W2        935             0.0000000000
      2806       936  TIP3      OH2           -20.2640287078       -2.7294863765      -26.3881041586  W2        936             0.0000000000
      2807       936  TIP3      H1            -20.6369187078       -3.5551063765      -26.0790441586  W2        936             0.0000000000
      2808       936  TIP3      H2            -19.9866787078       -2.9125463765      -27.2857641586  W2        936             0.0000000000
      2809       937  TIP3      OH2           -23.1036387078       -7.9215363765      -19.3669141586  W2        937             0.0000000000
      2810       937  TIP3      H1            -24.0319487078       -8.1533463765      -19.3939841586  W2        937             0.0000000000
      2811       937  TIP3      H2            -22.6525287078       -8.6985563765      -19.6970341586  W2        937             0.0000000000
      2812       938  TIP3      OH2           -30.5603287078       -3.5933763765      -23.2340441586  W2        938             0.0000000000
      2813       938  TIP3      H1            -30.0331087078       -2.8199363765      -23.4341641586  W2        938             0.0000000000
      2814       938  TIP3      H2            -31.4404787078       -3.3684563765      -23.5356441586  W2        938             0.0000000000
      2815       939  TIP3      OH2           -34.8055587078       -8.7309663765      -28.6468041586  W2        939             0.0000000000
      2816       939  TIP3      H1            -34.1895687078       -8.1042463765      -28.2673241586  W2        939             0.0000000000
      2817       939  TIP3      H2            -35.6672987078       -8.4149863765      -28.3751541586  W2        939             0.0000000000
      2818       940  TIP3      OH2           -29.1330987078       -5.9303863765      -23.6576141586  W2        940             0.0000000000
      2819       940  TIP3      H1            -29.3740987078       -5.0049463765      -23.6160841586  W2        940             0.0000000000
      2820       940  TIP3      H2            -29.8737387078       -6.3892563765      -23.2612241586  W2        940             0.0000000000
      2821       941  TIP3      OH2           -28.6184387078       -1.7810263765      -17.3425041586  W2        941             0.0000000000
      2822       941  TIP3      H1            -28.2559687078       -0.9264663765      -17.5760641586  W2        941             0.0000000000
      2823       941  TIP3      H2            -28.0869187078       -2.0728663765      -16.6018741586  W2        941             0.0000000000
      2824       942  TIP3      OH2           -30.4500187078       -0.9086263765      -24.1123941586  W2        942             0.0000000000
      2825       942  TIP3      H1            -31.3999687078       -0.8028863765      -24.0610641586  W2        942             0.0000000000
      2826       942  TIP3      H2            -30.0982087078       -0.0878863765      -23.7676441586  W2        942             0.0000000000
      2827       943  TIP3      OH2           -25.0743587078       -5.6819563765      -17.6419441586  W2        943             0.0000000000
      2828       943  TIP3      H1            -25.5002287078       -5.9097863765      -16.8155441586  W2        943             0.0000000000
      2829       943  TIP3      H2            -24.4937787078       -6.4207763765      -17.8244141586  W2        943             0.0000000000
      2830       944  TIP3      OH2           -22.8714687078       -4.7529063765      -28.5680441586  W2        944             0.0000000000
      2831       944  TIP3      H1            -22.5181587078       -5.1329263765      -27.7636941586  W2        944             0.0000000000
      2832       944  TIP3      H2            -23.8201187078       -4.8464263765      -28.4811141586  W2        944             0.0000000000
      2833       945  TIP3      OH2           -22.4159387078       -1.1300063765      -15.1724641586  W2        945             0.0000000000
      2834       945  TIP3      H1            -23.0176187078       -1.6857163765      -15.6678341586  W2        945             0.0000000000
      2835       945  TIP3      H2            -22.1345687078       -0.4630263765      -15.7987241586  W2        945             0.0000000000
      2836       946  TIP3      OH2           -18.3680287078       -0.2736563765      -28.3670241586  W2        946             0.0000000000
      2837       946  TIP3      H1            -17.6242387078        0.3123936235      -28.5068641586  W2        946             0.0000000000
      2838       946  TIP3      H2            -19.0622187078        0.2949236235      -28.0337841586  W2        946             0.0000000000
      2839       947  TIP3      OH2           -34.2933487078      -13.8972363765      -15.7652041586  W2        947             0.0000000000
      2840       947  TIP3      H1            -35.1861187078      -13.5586963765      -15.8328041586  W2        947             0.0000000000
      2841       947  TIP3      H2            -34.3920687078      -14.7526263765      -15.3471241586  W2        947             0.0000000000
      2842       948  TIP3      OH2           -22.0055387078       -6.0807063765      -26.3412541586  W2        948             0.0000000000
      2843       948  TIP3      H1            -22.2827787078       -6.8087763765      -25.7851441586  W2        948             0.0000000000
      2844       948  TIP3      H2            -21.0782387078       -5.9615063765      -26.1359941586  W2        948             0.0000000000
      2845       949  TIP3      OH2           -34.6421487078       -2.0927963765      -17.3302641586  W2        949             0.0000000000
      2846       949  TIP3      H1            -34.4251187078       -3.0245563765      -17.3612941586  W2        949             0.0000000000
      2847       949  TIP3      H2            -34.3957987078       -1.8182963765      -16.4469841586  W2        949             0.0000000000
      2848       950  TIP3      OH2           -28.7806887078       -3.6412963765      -30.1210441586  W2        950             0.0000000000
      2849       950  TIP3      H1            -28.5417087078       -4.3894863765      -30.6681541586  W2        950             0.0000000000
      2850       950  TIP3      H2            -29.0495587078       -4.0291263765      -29.2882641586  W2        950             0.0000000000
      2851       951  TIP3      OH2           -29.8436287078       -4.0709163765      -27.6647841586  W2        951             0.0000000000
      2852       951  TIP3      H1            -29.6968287078       -4.5909363765      -26.8746941586  W2        951             0.0000000000
      2853       951  TIP3      H2            -29.8464587078       -3.1641563765      -27.3581941586  W2        951             0.0000000000
      2854       952  TIP3      OH2           -33.3905187078       -6.8185863765      -27.1542441586  W2        952             0.0000000000
      2855       952  TIP3      H1            -34.0765887078       -6.4663363765      -26.5872741586  W2        952             0.0000000000
      2856       952  TIP3      H2            -32.8677287078       -6.0556263765      -27.4008141586  W2        952             0.0000000000
      2857       953  TIP3      OH2           -25.5590087078      -14.1562063765      -16.8753441586  W2        953             0.0000000000
      2858       953  TIP3      H1            -24.8602187078      -14.0823363765      -16.2253741586  W2        953             0.0000000000
      2859       953  TIP3      H2            -25.9398687078      -15.0207063765      -16.7210541586  W2        953             0.0000000000
      2860       954  TIP3      OH2           -24.7745187078      -14.5040363765      -25.7781141586  W2        954             0.0000000000
      2861       954  TIP3      H1            -24.5546887078      -14.0324963765      -26.5815741586  W2        954             0.0000000000
      2862       954  TIP3      H2            -24.2161187078      -14.1097763765      -25.1080541586  W2        954             0.0000000000
      2863       955  TIP3      OH2           -27.1059087078       -2.3735563765      -26.9153641586  W2        955             0.0000000000
      2864       955  TIP3      H1            -27.9222987078       -1.8765863765      -26.8629341586  W2        955             0.0000000000
      2865       955  TIP3      H2            -26.5762787078       -1.8982063765      -27.5554841586  W2        955             0.0000000000
      2866       956  TIP3      OH2           -27.5745287078      -12.7761563765      -24.9432741586  W2        956             0.0000000000
      2867       956  TIP3      H1            -26.7622687078      -12.2718363765      -24.8971041586  W2        956             0.0000000000
      2868       956  TIP3      H2            -27.8192287078      -12.9211863765      -24.0293141586  W2        956             0.0000000000
      2869       957  TIP3      OH2           -27.0388887078      -11.7898863765      -15.7586141586  W2        957             0.0000000000
      2870       957  TIP3      H1            -26.9198587078      -11.2163463765      -15.0015741586  W2        957             0.0000000000
      2871       957  TIP3      H2            -26.3834287078      -12.4779463765      -15.6438341586  W2        957             0.0000000000
      2872       958  TIP3      OH2           -26.6908587078      -15.6948563765      -24.0051641586  W2        958             0.0000000000
      2873       958  TIP3      H1            -27.0375087078      -15.0777963765      -23.3607341586  W2        958             0.0000000000
      2874       958  TIP3      H2            -26.0321687078      -15.1942863765      -24.4866141586  W2        958             0.0000000000
      2875       959  TIP3      OH2           -29.7675987078       -1.3298363765      -26.9336741586  W2        959             0.0000000000
      2876       959  TIP3      H1            -29.6067287078       -0.5300863765      -27.4344141586  W2        959             0.0000000000
      2877       959  TIP3      H2            -29.9648187078       -1.0232363765      -26.0486141586  W2        959             0.0000000000
      2878       960  TIP3      OH2           -31.0331587078      -14.6319163765      -27.3179141586  W2        960             0.0000000000
      2879       960  TIP3      H1            -31.1166787078      -13.7436063765      -26.9712741586  W2        960             0.0000000000
      2880       960  TIP3      H2            -30.1431287078      -14.8972463765      -27.0862341586  W2        960             0.0000000000
      2881       961  TIP3      OH2           -20.8343087078      -13.8828563765      -14.9236441586  W2        961             0.0000000000
      2882       961  TIP3      H1            -21.7507287078      -13.6206863765      -15.0112741586  W2        961             0.0000000000
      2883       961  TIP3      H2            -20.4988087078      -13.8859563765      -15.8201141586  W2        961             0.0000000000
      2884       962  TIP3      OH2           -22.2322087078      -10.1327563765      -20.8279141586  W2        962             0.0000000000
      2885       962  TIP3      H1            -23.0297687078      -10.5477363765      -21.1564141586  W2        962             0.0000000000
      2886       962  TIP3      H2            -21.7870987078      -10.8233863765      -20.3368641586  W2        962             0.0000000000
      2887       963  TIP3      OH2           -32.7746287078       -4.2046963765      -28.2574641586  W2        963             0.0000000000
      2888       963  TIP3      H1            -32.1824787078       -3.5052163765      -27.9812241586  W2        963             0.0000000000
      2889       963  TIP3      H2            -32.3153287078       -4.6377463765      -28.9770041586  W2        963             0.0000000000
      2890       964  TIP3      OH2           -34.4587087078      -11.5403963765      -29.1415241586  W2        964             0.0000000000
      2891       964  TIP3      H1            -34.5034487078      -10.6010863765      -28.9628241586  W2        964             0.0000000000
      2892       964  TIP3      H2            -35.3463887078      -11.7759063765      -29.4113141586  W2        964             0.0000000000
      2893       965  TIP3      OH2           -21.1457487078       -0.8765063765      -19.2055641586  W2        965             0.0000000000
      2894       965  TIP3      H1            -21.3013187078       -0.1980663765      -19.8626341586  W2        965             0.0000000000
      2895       965  TIP3      H2            -20.2131087078       -0.8045763765      -19.0025041586  W2        965             0.0000000000
      2896       966  TIP3      OH2           -33.6505087078      -16.7587363765      -20.4684241586  W2        966             0.0000000000
      2897       966  TIP3      H1            -33.8795287078      -16.6994863765      -21.3959241586  W2        966             0.0000000000
      2898       966  TIP3      H2            -34.0931687078      -17.5501863765      -20.1620141586  W2        966             0.0000000000
      2899       967  TIP3      OH2           -34.7201787078       -2.8180263765      -24.3078441586  W2        967             0.0000000000
      2900       967  TIP3      H1            -35.5523187078       -2.3457563765      -24.2807041586  W2        967             0.0000000000
      2901       967  TIP3      H2            -34.1743487078       -2.3082663765      -24.9065341586  W2        967             0.0000000000
      2902       968  TIP3      OH2           -35.4318087078       -0.2056563765      -12.9780441586  W2        968             0.0000000000
      2903       968  TIP3      H1            -34.8915887078       -0.4222563765      -12.2181241586  W2        968             0.0000000000
      2904       968  TIP3      H2            -35.9130087078       -1.0110563765      -13.1677941586  W2        968             0.0000000000
      2905       969  TIP3      OH2           -30.8344687078       -1.2862163765      -11.3576241586  W2        969             0.0000000000
      2906       969  TIP3      H1            -30.0667487078       -1.7451363765      -11.0167041586  W2        969             0.0000000000
      2907       969  TIP3      H2            -30.8558487078       -1.5122363765      -12.2875041586  W2        969             0.0000000000
      2908       970  TIP3      OH2           -26.7425087078       -1.7781563765      -29.9824441586  W2        970             0.0000000000
      2909       970  TIP3      H1            -27.3864087078       -2.4092963765      -29.6610741586  W2        970             0.0000000000
      2910       970  TIP3      H2            -25.9806787078       -2.3093563765      -30.2140941586  W2        970             0.0000000000
      2911       971  TIP3      OH2           -24.2575987078       -2.9061063765      -12.6284741586  W2        971             0.0000000000
      2912       971  TIP3      H1            -24.6086487078       -3.7628063765      -12.3854341586  W2        971             0.0000000000
      2913       971  TIP3      H2            -23.5312787078       -2.7634363765      -12.0215741586  W2        971             0.0000000000
      2914       972  TIP3      OH2           -22.1382187078       -1.9611663765      -29.7486441586  W2        972             0.0000000000
      2915       972  TIP3      H1            -21.8551787078       -2.7556463765      -29.2959541586  W2        972             0.0000000000
      2916       972  TIP3      H2            -21.3984287078       -1.7280663765      -30.3095341586  W2        972             0.0000000000
      2917       973  TIP3      OH2           -35.5248587078       -6.3952463765      -12.0236141586  W2        973             0.0000000000
      2918       973  TIP3      H1            -35.3808087078       -7.2971763765      -12.3099441586  W2        973             0.0000000000
      2919       973  TIP3      H2            -36.2971187078       -6.1090363765      -12.5113841586  W2        973             0.0000000000
      2920       974  TIP3      OH2           -31.1834887078       -6.0516763765      -29.8911541586  W2        974             0.0000000000
      2921       974  TIP3      H1            -31.1190787078       -6.8457163765      -29.3605141586  W2        974             0.0000000000
      2922       974  TIP3      H2            -30.5305687078       -6.1703963765      -30.5809541586  W2        974             0.0000000000
      2923       975  TIP3      OH2           -28.8692487078       -6.4254363765      -12.5909741586  W2        975             0.0000000000
      2924       975  TIP3      H1            -29.1978687078       -6.1546263765      -13.4482341586  W2        975             0.0000000000
      2925       975  TIP3      H2            -28.7174287078       -7.3664563765      -12.6784741586  W2        975             0.0000000000
      2926       976  TIP3      OH2           -25.8311487078       -5.0045063765      -30.1553541586  W2        976             0.0000000000
      2927       976  TIP3      H1            -26.0997387078       -4.8242963765      -29.2544641586  W2        976             0.0000000000
      2928       976  TIP3      H2            -26.0375887078       -5.9298863765      -30.2867741586  W2        976             0.0000000000
      2929       977  TIP3      OH2           -23.1347287078       -6.5097063765      -15.2077441586  W2        977             0.0000000000
      2930       977  TIP3      H1            -22.3892487078       -5.9213363765      -15.3273441586  W2        977             0.0000000000
      2931       977  TIP3      H2            -23.8920487078       -5.9277363765      -15.1444341586  W2        977             0.0000000000
      2932       978  TIP3      OH2           -34.6922087078       -9.1949163765      -12.6036841586  W2        978             0.0000000000
      2933       978  TIP3      H1            -34.2840887078      -10.0522563765      -12.7246241586  W2        978             0.0000000000
      2934       978  TIP3      H2            -34.9524487078       -9.1807863765      -11.6826541586  W2        978             0.0000000000
      2935       979  TIP3      OH2           -30.0341087078       -8.0790563765      -27.5853541586  W2        979             0.0000000000
      2936       979  TIP3      H1            -30.4939087078       -8.5632263765      -26.8995041586  W2        979             0.0000000000
      2937       979  TIP3      H2            -29.7792387078       -8.7475163765      -28.2213041586  W2        979             0.0000000000
      2938       980  TIP3      OH2           -30.7451787078      -10.1863463765      -15.2293941586  W2        980             0.0000000000
      2939       980  TIP3      H1            -31.3635687078       -9.5116863765      -14.9489241586  W2        980             0.0000000000
      2940       980  TIP3      H2            -30.4010587078       -9.8649563765      -16.0627741586  W2        980             0.0000000000
      2941       981  TIP3      OH2           -28.9630687078       -9.8358763765      -29.3230341586  W2        981             0.0000000000
      2942       981  TIP3      H1            -29.1435687078       -9.9907563765      -30.2502041586  W2        981             0.0000000000
      2943       981  TIP3      H2            -28.0130187078       -9.7280063765      -29.2782441586  W2        981             0.0000000000
      2944       982  TIP3      OH2           -25.7253587078       -7.7148163765      -11.9519141586  W2        982             0.0000000000
      2945       982  TIP3      H1            -24.7722387078       -7.6309063765      -11.9793141586  W2        982             0.0000000000
      2946       982  TIP3      H2            -25.8858987078       -8.4266363765      -11.3324241586  W2        982             0.0000000000
      2947       983  TIP3      OH2           -19.5732387078       -7.4814563765      -29.8772241586  W2        983             0.0000000000
      2948       983  TIP3      H1            -19.8467587078       -7.9059063765      -30.6903941586  W2        983             0.0000000000
      2949       983  TIP3      H2            -19.5338287078       -6.5500063765      -30.0941841586  W2        983             0.0000000000
      2950       984  TIP3      OH2           -30.4058087078      -12.8312663765      -14.1470841586  W2        984             0.0000000000
      2951       984  TIP3      H1            -30.2557187078      -13.5601363765      -14.7491141586  W2        984             0.0000000000
      2952       984  TIP3      H2            -30.4035687078      -12.0540963765      -14.7058641586  W2        984             0.0000000000
      2953       985  TIP3      OH2           -29.9932387078      -14.4616863765      -16.6543441586  W2        985             0.0000000000
      2954       985  TIP3      H1            -29.4574887078      -14.0100163765      -17.3064141586  W2        985             0.0000000000
      2955       985  TIP3      H2            -30.8452787078      -14.5697063765      -17.0769341586  W2        985             0.0000000000
      2956       986  TIP3      OH2           -28.4113987078       -9.0220663765      -16.4148241586  W2        986             0.0000000000
      2957       986  TIP3      H1            -27.6609187078       -9.1783163765      -16.9880441586  W2        986             0.0000000000
      2958       986  TIP3      H2            -28.7505687078       -8.1704063765      -16.6902741586  W2        986             0.0000000000
      2959       987  TIP3      OH2           -23.9957787078      -11.2068863765      -11.3862941586  W2        987             0.0000000000
      2960       987  TIP3      H1            -23.8036487078      -12.1379463765      -11.4978441586  W2        987             0.0000000000
      2961       987  TIP3      H2            -23.1381487078      -10.7819363765      -11.3967541586  W2        987             0.0000000000
      2962       988  TIP3      OH2           -22.6790587078       -8.4183663765      -13.3090241586  W2        988             0.0000000000
      2963       988  TIP3      H1            -22.9605587078       -7.7089063765      -13.8866441586  W2        988             0.0000000000
      2964       988  TIP3      H2            -21.7366287078       -8.4910663765      -13.4599041586  W2        988             0.0000000000
      2965       989  TIP3      OH2           -31.9271787078      -11.6329163765      -12.2355241586  W2        989             0.0000000000
      2966       989  TIP3      H1            -32.6942787078      -12.1654363765      -12.4457641586  W2        989             0.0000000000
      2967       989  TIP3      H2            -31.2482787078      -11.9428763765      -12.8348941586  W2        989             0.0000000000
      2968       990  TIP3      OH2           -29.1876887078      -17.0051163765      -16.2229841586  W2        990             0.0000000000
      2969       990  TIP3      H1            -29.2857287078      -16.0587963765      -16.3283641586  W2        990             0.0000000000
      2970       990  TIP3      H2            -29.9300687078      -17.3777363765      -16.6986341586  W2        990             0.0000000000
      2971       991  TIP3      OH2           -27.9236387078      -12.6835763765      -12.6591441586  W2        991             0.0000000000
      2972       991  TIP3      H1            -28.1590987078      -12.9029063765      -11.7576541586  W2        991             0.0000000000
      2973       991  TIP3      H2            -28.7069487078      -12.8904563765      -13.1688941586  W2        991             0.0000000000
      2974       992  TIP3      OH2           -25.2079787078      -13.5562263765      -13.5837941586  W2        992             0.0000000000
      2975       992  TIP3      H1            -26.1554387078      -13.5242563765      -13.4514641586  W2        992             0.0000000000
      2976       992  TIP3      H2            -24.8953087078      -14.1815163765      -12.9299741586  W2        992             0.0000000000
      2977       993  TIP3      OH2           -23.5738287078      -14.9221163765      -11.5786041586  W2        993             0.0000000000
      2978       993  TIP3      H1            -23.6706487078      -15.8743863765      -11.5844141586  W2        993             0.0000000000
      2979       993  TIP3      H2            -23.8955187078      -14.6534363765      -10.7180541586  W2        993             0.0000000000
      2980       994  TIP3      OH2           -33.7468987078      -13.7125363765      -12.5310541586  W2        994             0.0000000000
      2981       994  TIP3      H1            -33.5351587078      -14.4189263765      -13.1413041586  W2        994             0.0000000000
      2982       994  TIP3      H2            -33.8581487078      -14.1499363765      -11.6869341586  W2        994             0.0000000000
      2983       995  TIP3      OH2           -28.9658787078      -17.7113763765      -13.5517041586  W2        995             0.0000000000
      2984       995  TIP3      H1            -28.2540387078      -18.3511563765      -13.5657941586  W2        995             0.0000000000
      2985       995  TIP3      H2            -29.0668387078      -17.4445463765      -14.4653941586  W2        995             0.0000000000
      2986       996  TIP3      OH2           -28.6121287078      -16.0285363765      -11.4980741586  W2        996             0.0000000000
      2987       996  TIP3      H1            -28.7439087078      -16.5041563765      -12.3182241586  W2        996             0.0000000000
      2988       996  TIP3      H2            -29.2113887078      -15.2841763765      -11.5533641586  W2        996             0.0000000000
      2989       997  TIP3      OH2           -29.0658987078        0.8544936235      -28.3216741586  W2        997             0.0000000000
      2990       997  TIP3      H1            -28.1328287078        1.0123636235      -28.1778341586  W2        997             0.0000000000
      2991       997  TIP3      H2            -29.3300187078        1.5297936235      -28.9465241586  W2        997             0.0000000000
      2992       998  TIP3      OH2           -35.4974087078       -4.5091263765      -28.8388641586  W2        998             0.0000000000
      2993       998  TIP3      H1            -34.5834887078       -4.4302363765      -28.5654741586  W2        998             0.0000000000
      2994       998  TIP3      H2            -35.4900987078       -5.1961663765      -29.5053041586  W2        998             0.0000000000
      2995       999  TIP3      OH2           -36.8483487078        0.8837236235      -23.7614741586  W2        999             0.0000000000
      2996       999  TIP3      H1            -37.4956387078        0.4218936235      -24.2943541586  W2        999             0.0000000000
      2997       999  TIP3      H2            -36.4938887078        0.2120536235      -23.1788541586  W2        999             0.0000000000
      2998      1000  TIP3      OH2           -35.9784287078       -1.0355763765      -21.9568541586  W2        1000            0.0000000000
      2999      1000  TIP3      H1            -36.3127487078       -1.9158463765      -21.7848341586  W2        1000            0.0000000000
      3000      1000  TIP3      H2            -35.7561887078       -0.6900763765      -21.0922941586  W2        1000            0.0000000000
      3001      1001  TIP3      OH2           -18.4299487078       -0.2259363765      -18.9763741586  W2        1001            0.0000000000
      3002      1001  TIP3      H1            -18.4512787078       -0.0410963765      -18.0374341586  W2        1001            0.0000000000
      3003      1001  TIP3      H2            -17.7393287078        0.3424636235      -19.3172341586  W2        1001            0.0000000000
      3004      1002  TIP3      OH2           -18.8666587078       -0.6588263765      -16.0544641586  W2        1002            0.0000000000
      3005      1002  TIP3      H1            -19.3537887078       -1.3944163765      -16.4257241586  W2        1002            0.0000000000
      3006      1002  TIP3      H2            -18.3173887078       -1.0524363765      -15.3765241586  W2        1002            0.0000000000
      3007      1003  TIP3      OH2           -20.4159287078       -4.8690163765      -11.4164341586  W2        1003            0.0000000000
      3008      1003  TIP3      H1            -21.2818187078       -4.9740463765      -11.0222041586  W2        1003            0.0000000000
      3009      1003  TIP3      H2            -20.0393387078       -4.1106863765      -10.9699641586  W2        1003            0.0000000000
      3010      1004  TIP3      OH2           -19.1149587078       -6.6126463765      -25.9021841586  W2        1004            0.0000000000
      3011      1004  TIP3      H1            -18.2648187078       -6.1915563765      -25.7750241586  W2        1004            0.0000000000
      3012      1004  TIP3      H2            -19.1094487078       -7.3526363765      -25.2950441586  W2        1004            0.0000000000
      3013      1005  TIP3      OH2           -18.7203987078       -8.5589063765      -24.0786141586  W2        1005            0.0000000000
      3014      1005  TIP3      H1            -19.4469387078       -9.0386463765      -23.6808541586  W2        1005            0.0000000000
      3015      1005  TIP3      H2            -18.1390687078       -8.3534363765      -23.3464541586  W2        1005            0.0000000000
      3016      1006  TIP3      OH2           -18.9612787078       -5.7741563765      -19.1308541586  W2        1006            0.0000000000
      3017      1006  TIP3      H1            -18.1278587078       -6.1521563765      -19.4114941586  W2        1006            0.0000000000
      3018      1006  TIP3      H2            -18.8492487078       -4.8310363765      -19.2499441586  W2        1006            0.0000000000
      3019      1007  TIP3      OH2           -20.4750487078       -2.8964063765      -16.8240141586  W2        1007            0.0000000000
      3020      1007  TIP3      H1            -21.1225187078       -2.5712563765      -16.1984941586  W2        1007            0.0000000000
      3021      1007  TIP3      H2            -20.9926487078       -3.3366363765      -17.4981841586  W2        1007            0.0000000000
      3022      1008  TIP3      OH2           -18.4520887078       -8.6580563765      -27.6874841586  W2        1008            0.0000000000
      3023      1008  TIP3      H1            -18.9739787078       -8.3016463765      -28.4063941586  W2        1008            0.0000000000
      3024      1008  TIP3      H2            -18.4851687078       -7.9832763765      -27.0093941586  W2        1008            0.0000000000
      3025      1009  TIP3      OH2           -20.1031887078      -11.4184963765      -29.1367741586  W2        1009            0.0000000000
      3026      1009  TIP3      H1            -20.0067487078      -10.7517963765      -29.8168041586  W2        1009            0.0000000000
      3027      1009  TIP3      H2            -20.2432287078      -12.2338663765      -29.6182241586  W2        1009            0.0000000000
      3028      1010  TIP3      OH2           -20.9337187078      -10.0382563765      -23.5157441586  W2        1010            0.0000000000
      3029      1010  TIP3      H1            -21.0838387078      -10.9833963765      -23.5359641586  W2        1010            0.0000000000
      3030      1010  TIP3      H2            -21.2872687078       -9.7571163765      -22.6718341586  W2        1010            0.0000000000
      3031      1011  TIP3      OH2           -35.8984787078       -7.9600363765      -19.5053641586  W2        1011            0.0000000000
      3032      1011  TIP3      H1            -35.7141887078       -8.0418663765      -20.4410741586  W2        1011            0.0000000000
      3033      1011  TIP3      H2            -35.0491887078       -8.0843363765      -19.0817241586  W2        1011            0.0000000000
      3034      1012  TIP3      OH2           -20.0774287078       -8.0679263765      -13.8769141586  W2        1012            0.0000000000
      3035      1012  TIP3      H1            -19.4946987078       -8.8026963765      -13.6851941586  W2        1012            0.0000000000
      3036      1012  TIP3      H2            -19.5134987078       -7.2958963765      -13.8303341586  W2        1012            0.0000000000
      3037      1013  TIP3      OH2           -18.5807187078      -10.1653463765      -13.1923741586  W2        1013            0.0000000000
      3038      1013  TIP3      H1            -19.4440487078      -10.5441363765      -13.3579041586  W2        1013            0.0000000000
      3039      1013  TIP3      H2            -17.9763487078      -10.9038663765      -13.2667941586  W2        1013            0.0000000000
      3040      1014  TIP3      OH2           -20.8558087078      -14.0105163765      -30.0192241586  W2        1014            0.0000000000
      3041      1014  TIP3      H1            -20.2452287078      -14.3818363765      -29.3824041586  W2        1014            0.0000000000
      3042      1014  TIP3      H2            -21.6926587078      -14.4318263765      -29.8232241586  W2        1014            0.0000000000
      3043      1015  TIP3      OH2           -21.2232387078      -12.4556763765      -25.0532341586  W2        1015            0.0000000000
      3044      1015  TIP3      H1            -20.9435287078      -13.3626363765      -24.9290641586  W2        1015            0.0000000000
      3045      1015  TIP3      H2            -20.4640687078      -12.0215263765      -25.4423141586  W2        1015            0.0000000000
      3046      1016  TIP3      OH2           -20.6114087078      -11.8739363765      -19.6173441586  W2        1016            0.0000000000
      3047      1016  TIP3      H1            -19.6786087078      -11.6619463765      -19.6517441586  W2        1016            0.0000000000
      3048      1016  TIP3      H2            -20.8466587078      -11.7727263765      -18.6950441586  W2        1016            0.0000000000
      3049      1017  TIP3      OH2           -20.5822187078      -11.1374063765      -16.8414041586  W2        1017            0.0000000000
      3050      1017  TIP3      H1            -21.4250887078      -10.8693663765      -16.4754241586  W2        1017            0.0000000000
      3051      1017  TIP3      H2            -20.1397887078      -10.3152163765      -17.0522941586  W2        1017            0.0000000000
      3052      1018  TIP3      OH2           -36.3009987078      -12.6895363765      -13.3644841586  W2        1018            0.0000000000
      3053      1018  TIP3      H1            -35.3815087078      -12.8117063765      -13.1281741586  W2        1018            0.0000000000
      3054      1018  TIP3      H2            -36.7505487078      -13.4395663765      -12.9751341586  W2        1018            0.0000000000
      3055      1019  TIP3      OH2           -18.2990587078      -17.1573863765      -11.4879041586  W2        1019            0.0000000000
      3056      1019  TIP3      H1            -17.9493587078      -17.8110363765      -12.0934341586  W2        1019            0.0000000000
      3057      1019  TIP3      H2            -18.1521087078      -16.3199763765      -11.9276441586  W2        1019            0.0000000000
      3058      1020  TIP3      OH2           -20.6097587078      -15.1927463765      -25.0050341586  W2        1020            0.0000000000
      3059      1020  TIP3      H1            -20.4272587078      -15.6415963765      -24.1795341586  W2        1020            0.0000000000
      3060      1020  TIP3      H2            -21.2094687078      -15.7773063765      -25.4685741586  W2        1020            0.0000000000
      3061      1021  TIP3      OH2           -35.0797487078      -14.3773763765      -20.4731941586  W2        1021            0.0000000000
      3062      1021  TIP3      H1            -34.6345887078      -15.1691263765      -20.1712241586  W2        1021            0.0000000000
      3063      1021  TIP3      H2            -34.6134487078      -13.6608563765      -20.0426341586  W2        1021            0.0000000000
      3064      1022  TIP3      OH2           -36.7757187078      -11.3780763765      -19.4041741586  W2        1022            0.0000000000
      3065      1022  TIP3      H1            -36.2837387078      -11.5990263765      -20.1949741586  W2        1022            0.0000000000
      3066      1022  TIP3      H2            -36.4136287078      -10.5377363765      -19.1232241586  W2        1022            0.0000000000
      3067      1023  TIP3      OH2           -18.7793387078      -15.0479263765      -13.1387741586  W2        1023            0.0000000000
      3068      1023  TIP3      H1            -19.6967687078      -14.7772163765      -13.1744241586  W2        1023            0.0000000000
      3069      1023  TIP3      H2            -18.6563987078      -15.5830863765      -13.9228041586  W2        1023            0.0000000000
      3070      1024  TIP3      OH2           -18.7431387078      -15.1249363765      -28.4770041586  W2        1024            0.0000000000
      3071      1024  TIP3      H1            -18.3308787078      -15.8463663765      -28.9522041586  W2        1024            0.0000000000
      3072      1024  TIP3      H2            -18.0614887078      -14.4554763765      -28.4185741586  W2        1024            0.0000000000
      3073      1025  TIP3      OH2           -36.4620687078      -15.1201663765      -25.3499341586  W2        1025            0.0000000000
      3074      1025  TIP3      H1            -37.3872287078      -14.9115063765      -25.4793841586  W2        1025            0.0000000000
      3075      1025  TIP3      H2            -36.0080787078      -14.6360863765      -26.0397041586  W2        1025            0.0000000000
      3076      1026  TIP3      OH2           -21.6913487078       -0.1359963765      -23.4041941586  W2        1026            0.0000000000
      3077      1026  TIP3      H1            -21.0390587078       -0.4837863765      -24.0122841586  W2        1026            0.0000000000
      3078      1026  TIP3      H2            -21.1809687078        0.3523236235      -22.7582241586  W2        1026            0.0000000000
      3079      1027  TIP3      OH2           -36.4985287078      -16.3822663765      -17.0056841586  W2        1027            0.0000000000
      3080      1027  TIP3      H1            -37.1634787078      -16.6282363765      -16.3625941586  W2        1027            0.0000000000
      3081      1027  TIP3      H2            -36.9413987078      -15.7602263765      -17.5828841586  W2        1027            0.0000000000
      3082      1028  TIP3      OH2           -34.3065987078       -3.2068563765      -12.8611041586  W2        1028            0.0000000000
      3083      1028  TIP3      H1            -35.1273487078       -3.0322063765      -13.3216341586  W2        1028            0.0000000000
      3084      1028  TIP3      H2            -34.5588187078       -3.2803863765      -11.9406641586  W2        1028            0.0000000000
      3085      1029  TIP3      OH2           -31.3523087078       -2.2327363765      -16.6027041586  W2        1029            0.0000000000
      3086      1029  TIP3      H1            -31.7771987078       -1.4228863765      -16.8852441586  W2        1029            0.0000000000
      3087      1029  TIP3      H2            -30.4480287078       -2.1473263765      -16.9047241586  W2        1029            0.0000000000
      3088      1030  TIP3      OH2           -27.0411687078       -0.8337363765      -13.6433341586  W2        1030            0.0000000000
      3089      1030  TIP3      H1            -26.8564187078       -1.1671263765      -12.7653041586  W2        1030            0.0000000000
      3090      1030  TIP3      H2            -26.1947187078       -0.5238763765      -13.9654141586  W2        1030            0.0000000000
      3091      1031  TIP3      OH2           -24.6961287078        0.4521536235      -14.3991941586  W2        1031            0.0000000000
      3092      1031  TIP3      H1            -24.0192387078       -0.1806163765      -14.6392741586  W2        1031            0.0000000000
      3093      1031  TIP3      H2            -24.3742487078        0.8532036235      -13.5918641586  W2        1031            0.0000000000
      3094      1032  TIP3      OH2           -19.7787487078      -16.9582963765      -15.3196941586  W2        1032            0.0000000000
      3095      1032  TIP3      H1            -20.5913987078      -16.6332663765      -15.7072241586  W2        1032            0.0000000000
      3096      1032  TIP3      H2            -19.5458987078      -17.7184463765      -15.8527841586  W2        1032            0.0000000000
      3097      1033  TIP3      OH2           -33.9506387078        1.0236536235      -16.5551741586  W2        1033            0.0000000000
      3098      1033  TIP3      H1            -34.6709987078        1.4637536235      -17.0064041586  W2        1033            0.0000000000
      3099      1033  TIP3      H2            -34.3162387078        0.7731236235      -15.7067741586  W2        1033            0.0000000000
      3100      1034  TIP3      OH2           -31.4833787078        0.6240436235      -17.5254541586  W2        1034            0.0000000000
      3101      1034  TIP3      H1            -32.3481587078        0.6958936235      -17.1214441586  W2        1034            0.0000000000
      3102      1034  TIP3      H2            -31.5384787078        1.1707736235      -18.3092041586  W2        1034            0.0000000000
      3103      1035  TIP3      OH2           -26.7728187078        0.5119336235      -18.3498541586  W2        1035            0.0000000000
      3104      1035  TIP3      H1            -27.2294187078        1.0409036235      -19.0040141586  W2        1035            0.0000000000
      3105      1035  TIP3      H2            -26.6100187078        1.1150736235      -17.6246241586  W2        1035            0.0000000000
      3106      1036  TIP3      OH2           -24.4451887078       -0.6101063765      -17.4048241586  W2        1036            0.0000000000
      3107      1036  TIP3      H1            -25.3498187078       -0.4450863765      -17.6706141586  W2        1036            0.0000000000
      3108      1036  TIP3      H2            -24.0163287078        0.2431136235      -17.4704841586  W2        1036            0.0000000000
      3109      1037  TIP3      OH2           -21.8409987078        0.9598036235      -17.1100441586  W2        1037            0.0000000000
      3110      1037  TIP3      H1            -22.0227987078        1.8756936235      -17.3205541586  W2        1037            0.0000000000
      3111      1037  TIP3      H2            -21.6642187078        0.5495136235      -17.9565841586  W2        1037            0.0000000000
      3112      1038  TIP3      OH2           -34.5358287078       -0.3530963765      -19.6449941586  W2        1038            0.0000000000
      3113      1038  TIP3      H1            -34.5542287078       -0.7785863765      -18.7877641586  W2        1038            0.0000000000
      3114      1038  TIP3      H2            -33.7310387078       -0.6715963765      -20.0537741586  W2        1038            0.0000000000
      3115      1039  TIP3      OH2           -32.3945187078       -1.6432263765      -20.9900041586  W2        1039            0.0000000000
      3116      1039  TIP3      H1            -32.6134487078       -2.5594863765      -20.8204041586  W2        1039            0.0000000000
      3117      1039  TIP3      H2            -31.5702987078       -1.5031863765      -20.5238641586  W2        1039            0.0000000000
      3118      1040  TIP3      OH2           -29.8572687078       -1.1732963765      -20.1412041586  W2        1040            0.0000000000
      3119      1040  TIP3      H1            -29.6446987078       -2.0613963765      -20.4281141586  W2        1040            0.0000000000
      3120      1040  TIP3      H2            -29.7927587078       -1.2075263765      -19.1868041586  W2        1040            0.0000000000
      3121      1041  TIP3      OH2           -26.3488987078      -15.5092363765      -20.9968741586  W2        1041            0.0000000000
      3122      1041  TIP3      H1            -27.0232187078      -16.1386763765      -20.7412941586  W2        1041            0.0000000000
      3123      1041  TIP3      H2            -25.7849787078      -15.9933463765      -21.6000841586  W2        1041            0.0000000000
      3124      1042  TIP3      OH2           -21.2061787078      -17.4018363765      -20.8841641586  W2        1042            0.0000000000
      3125      1042  TIP3      H1            -20.6024187078      -16.8542963765      -21.3860641586  W2        1042            0.0000000000
      3126      1042  TIP3      H2            -22.0759787078      -17.0827963765      -21.1247541586  W2        1042            0.0000000000
      3127      1043  TIP3      OH2           -19.4791387078      -16.2629663765      -22.5510741586  W2        1043            0.0000000000
      3128      1043  TIP3      H1            -18.8673887078      -16.7773963765      -23.0777141586  W2        1043            0.0000000000
      3129      1043  TIP3      H2            -19.0967987078      -15.3857563765      -22.5276341586  W2        1043            0.0000000000
      3130      1044  TIP3      OH2           -34.0221487078      -16.8752063765      -23.1748841586  W2        1044            0.0000000000
      3131      1044  TIP3      H1            -34.7991687078      -17.1097163765      -23.6822941586  W2        1044            0.0000000000
      3132      1044  TIP3      H2            -33.4917887078      -17.6719963765      -23.1660841586  W2        1044            0.0000000000
      3133      1045  TIP3      OH2           -35.1858087078      -17.0773963765      -27.3712741586  W2        1045            0.0000000000
      3134      1045  TIP3      H1            -34.7467387078      -16.4663463765      -27.9629241586  W2        1045            0.0000000000
      3135      1045  TIP3      H2            -35.8195687078      -16.5389863765      -26.8972741586  W2        1045            0.0000000000
      3136      1046  TIP3      OH2           -29.4428887078      -16.9484963765      -23.3615741586  W2        1046            0.0000000000
      3137      1046  TIP3      H1            -28.5685487078      -16.5600663765      -23.3911441586  W2        1046            0.0000000000
      3138      1046  TIP3      H2            -29.5788087078      -17.1637163765      -22.4388541586  W2        1046            0.0000000000
      3139      1047  TIP3      OH2           -23.8860487078      -16.9185163765      -21.7124041586  W2        1047            0.0000000000
      3140      1047  TIP3      H1            -23.8098887078      -16.8233563765      -22.6618041586  W2        1047            0.0000000000
      3141      1047  TIP3      H2            -24.1611287078      -17.8262263765      -21.5834941586  W2        1047            0.0000000000
      3142      1048  TIP3      OH2           -22.5327887078      -16.8927363765      -26.0199041586  W2        1048            0.0000000000
      3143      1048  TIP3      H1            -23.2356787078      -16.2778163765      -26.2297641586  W2        1048            0.0000000000
      3144      1048  TIP3      H2            -22.9776487078      -17.7300663765      -25.8888141586  W2        1048            0.0000000000
      3145      1049  TIP3      OH2           -35.2848587078       -1.1291763765      -26.4737641586  W2        1049            0.0000000000
      3146      1049  TIP3      H1            -35.9698687078       -1.1672863765      -27.1412541586  W2        1049            0.0000000000
      3147      1049  TIP3      H2            -35.2811387078       -0.2164163765      -26.1855541586  W2        1049            0.0000000000
      3148      1050  TIP3      OH2           -33.3248987078      -15.1612463765      -28.9288641586  W2        1050            0.0000000000
      3149      1050  TIP3      H1            -32.8335587078      -15.7910063765      -29.4563141586  W2        1050            0.0000000000
      3150      1050  TIP3      H2            -32.7012687078      -14.8653063765      -28.2657441586  W2        1050            0.0000000000
      3151      1051  TIP3      OH2           -28.2988887078      -14.8680963765      -26.4718141586  W2        1051            0.0000000000
      3152      1051  TIP3      H1            -28.1207587078      -15.5147763765      -25.7889541586  W2        1051            0.0000000000
      3153      1051  TIP3      H2            -28.3522687078      -14.0343263765      -26.0047041586  W2        1051            0.0000000000
      3154      1052  TIP3      OH2           -26.4205087078        0.0803136235      -28.0761441586  W2        1052            0.0000000000
      3155      1052  TIP3      H1            -25.5544887078        0.4470536235      -28.2543241586  W2        1052            0.0000000000
      3156      1052  TIP3      H2            -26.6672287078       -0.3588863765      -28.8900641586  W2        1052            0.0000000000
      3157      1053  TIP3      OH2           -19.7115487078       -0.3566563765      -25.3970341586  W2        1053            0.0000000000
      3158      1053  TIP3      H1            -19.9058387078       -1.1044463765      -25.9620741586  W2        1053            0.0000000000
      3159      1053  TIP3      H2            -19.7505387078        0.4013536235      -25.9802441586  W2        1053            0.0000000000
      3160      1054  TIP3      OH2           -34.0643487078      -16.3610163765      -13.6572641586  W2        1054            0.0000000000
      3161      1054  TIP3      H1            -34.4305287078      -17.1267563765      -13.2147941586  W2        1054            0.0000000000
      3162      1054  TIP3      H2            -33.1514987078      -16.3319963765      -13.3707541586  W2        1054            0.0000000000
      3163      1055  TIP3      OH2           -32.0912687078      -17.0105763765      -12.1215541586  W2        1055            0.0000000000
      3164      1055  TIP3      H1            -31.1929087078      -17.2845563765      -12.3062141586  W2        1055            0.0000000000
      3165      1055  TIP3      H2            -32.4779587078      -17.7529763765      -11.6572941586  W2        1055            0.0000000000
      3166      1056  TIP3      OH2           -33.4667387078       -0.2090963765      -29.4485541586  W2        1056            0.0000000000
      3167      1056  TIP3      H1            -33.7342787078        0.0771936235      -28.5752441586  W2        1056            0.0000000000
      3168      1056  TIP3      H2            -32.6954787078       -0.7551763765      -29.2963041586  W2        1056            0.0000000000
      3169      1057  TIP3      OH2           -23.6700387078      -17.6780463765      -11.9392741586  W2        1057            0.0000000000
      3170      1057  TIP3      H1            -23.5933187078      -18.1039763765      -11.0855041586  W2        1057            0.0000000000
      3171      1057  TIP3      H2            -22.7763787078      -17.6645763765      -12.2819241586  W2        1057            0.0000000000
      3172      1058  TIP3      OH2           -20.4939287078       -1.6054163765      -13.2468541586  W2        1058            0.0000000000
      3173      1058  TIP3      H1            -21.2757387078       -1.7916163765      -13.7667941586  W2        1058            0.0000000000
      3174      1058  TIP3      H2            -20.5659387078       -0.6759863765      -13.0296041586  W2        1058            0.0000000000
      3175      1059  TIP3      OH2            -6.0878887078       -7.7189763765      -23.2161341586  W2        1059            0.0000000000
      3176      1059  TIP3      H1             -5.9987787078       -6.7751563765      -23.3484241586  W2        1059            0.0000000000
      3177      1059  TIP3      H2             -6.7261287078       -7.9943363765      -23.8741941586  W2        1059            0.0000000000
      3178      1060  TIP3      OH2            -7.1547587078       -8.4639063765      -19.7973141586  W2        1060            0.0000000000
      3179      1060  TIP3      H1             -7.1930087078       -9.1102763765      -19.0923541586  W2        1060            0.0000000000
      3180      1060  TIP3      H2             -7.4771087078       -8.9304663765      -20.5684441586  W2        1060            0.0000000000
      3181      1061  TIP3      OH2           -14.7862587078       -8.8496963765      -18.2043241586  W2        1061            0.0000000000
      3182      1061  TIP3      H1            -14.7450487078       -9.4753663765      -17.4810841586  W2        1061            0.0000000000
      3183      1061  TIP3      H2            -14.0834887078       -8.2258363765      -18.0222841586  W2        1061            0.0000000000
      3184      1062  TIP3      OH2            -3.4487387078       -5.5248663765      -21.4958041586  W2        1062            0.0000000000
      3185      1062  TIP3      H1             -3.8894687078       -6.2452663765      -21.0452441586  W2        1062            0.0000000000
      3186      1062  TIP3      H2             -3.4617687078       -4.8041463765      -20.8660341586  W2        1062            0.0000000000
      3187      1063  TIP3      OH2           -13.8629487078       -4.3998063765      -19.6694141586  W2        1063            0.0000000000
      3188      1063  TIP3      H1            -14.2324287078       -5.2017563765      -20.0389841586  W2        1063            0.0000000000
      3189      1063  TIP3      H2            -12.9218387078       -4.5683163765      -19.6230741586  W2        1063            0.0000000000
      3190      1064  TIP3      OH2           -17.2528987078      -10.7395463765      -24.2765341586  W2        1064            0.0000000000
      3191      1064  TIP3      H1            -17.7005587078       -9.8936763765      -24.2948841586  W2        1064            0.0000000000
      3192      1064  TIP3      H2            -17.8137787078      -11.3191263765      -24.7920241586  W2        1064            0.0000000000
      3193      1065  TIP3      OH2           -16.5422887078       -8.5775863765      -22.1507341586  W2        1065            0.0000000000
      3194      1065  TIP3      H1            -16.3289387078       -9.3474263765      -21.6234341586  W2        1065            0.0000000000
      3195      1065  TIP3      H2            -15.8045287078       -8.4879163765      -22.7539741586  W2        1065            0.0000000000
      3196      1066  TIP3      OH2            -6.3371887078       -0.4206963765      -21.2837641586  W2        1066            0.0000000000
      3197      1066  TIP3      H1             -5.7175487078       -1.0972263765      -21.5568441586  W2        1066            0.0000000000
      3198      1066  TIP3      H2             -6.5454487078       -0.6386163765      -20.3752741586  W2        1066            0.0000000000
      3199      1067  TIP3      OH2            -8.7653187078       -6.0317663765      -19.3912141586  W2        1067            0.0000000000
      3200      1067  TIP3      H1             -8.4615287078       -6.7176263765      -19.9858041586  W2        1067            0.0000000000
      3201      1067  TIP3      H2             -8.0439187078       -5.9128963765      -18.7734141586  W2        1067            0.0000000000
      3202      1068  TIP3      OH2            -0.1023387078      -14.4302363765      -18.5305941586  W2        1068            0.0000000000
      3203      1068  TIP3      H1             -0.0531187078      -13.8201163765      -17.7946841586  W2        1068            0.0000000000
      3204      1068  TIP3      H2              0.3231712922      -13.9691463765      -19.2534841586  W2        1068            0.0000000000
      3205      1069  TIP3      OH2            -5.6246187078      -11.6375263765      -19.0637341586  W2        1069            0.0000000000
      3206      1069  TIP3      H1             -5.4820287078      -12.5838263765      -19.0435741586  W2        1069            0.0000000000
      3207      1069  TIP3      H2             -5.7307187078      -11.4305463765      -19.9922441586  W2        1069            0.0000000000
      3208      1070  TIP3      OH2           -12.4697887078      -13.5358863765      -21.7912541586  W2        1070            0.0000000000
      3209      1070  TIP3      H1            -12.4266787078      -12.6760363765      -22.2096241586  W2        1070            0.0000000000
      3210      1070  TIP3      H2            -12.9273787078      -14.0884163765      -22.4249341586  W2        1070            0.0000000000
      3211      1071  TIP3      OH2            -4.7475187078      -13.4053263765      -23.3904241586  W2        1071            0.0000000000
      3212      1071  TIP3      H1             -4.1010887078      -13.7340063765      -22.7656641586  W2        1071            0.0000000000
      3213      1071  TIP3      H2             -4.2375787078      -12.8874263765      -24.0132841586  W2        1071            0.0000000000
      3214      1072  TIP3      OH2           -15.8496387078      -11.1393063765      -21.0291141586  W2        1072            0.0000000000
      3215      1072  TIP3      H1            -15.1959787078      -11.6891363765      -20.5971041586  W2        1072            0.0000000000
      3216      1072  TIP3      H2            -15.8257087078      -11.4134063765      -21.9459141586  W2        1072            0.0000000000
      3217      1073  TIP3      OH2           -10.6931887078       -9.5891763765      -21.8139641586  W2        1073            0.0000000000
      3218      1073  TIP3      H1            -10.0770887078      -10.1156363765      -21.3045641586  W2        1073            0.0000000000
      3219      1073  TIP3      H2            -11.2793087078      -10.2293063765      -22.2176041586  W2        1073            0.0000000000
      3220      1074  TIP3      OH2             0.2891212922      -12.9523163765      -16.2946141586  W2        1074            0.0000000000
      3221      1074  TIP3      H1             -0.3994187078      -12.2942463765      -16.3899541586  W2        1074            0.0000000000
      3222      1074  TIP3      H2              0.3045812922      -13.1495263765      -15.3580741586  W2        1074            0.0000000000
      3223      1075  TIP3      OH2           -13.6595987078      -14.6180463765      -17.7171741586  W2        1075            0.0000000000
      3224      1075  TIP3      H1            -13.8784287078      -14.0879863765      -18.4835741586  W2        1075            0.0000000000
      3225      1075  TIP3      H2            -14.3275087078      -14.3914963765      -17.0700341586  W2        1075            0.0000000000
      3226      1076  TIP3      OH2            -6.2906187078       -5.1179363765      -24.1732641586  W2        1076            0.0000000000
      3227      1076  TIP3      H1             -6.5861087078       -5.4407063765      -25.0245741586  W2        1076            0.0000000000
      3228      1076  TIP3      H2             -6.6148387078       -4.2182663765      -24.1320041586  W2        1076            0.0000000000
      3229      1077  TIP3      OH2           -11.0904587078       -6.9424763765      -17.4298041586  W2        1077            0.0000000000
      3230      1077  TIP3      H1            -11.8305487078       -6.3443263765      -17.3262841586  W2        1077            0.0000000000
      3231      1077  TIP3      H2            -10.3765087078       -6.3885163765      -17.7454441586  W2        1077            0.0000000000
      3232      1078  TIP3      OH2            -2.9836787078      -14.1143963765      -21.4098341586  W2        1078            0.0000000000
      3233      1078  TIP3      H1             -3.1988787078      -14.8800563765      -20.8772341586  W2        1078            0.0000000000
      3234      1078  TIP3      H2             -2.3279387078      -13.6419363765      -20.8969841586  W2        1078            0.0000000000
      3235      1079  TIP3      OH2           -14.0658687078      -12.7258663765      -19.7649541586  W2        1079            0.0000000000
      3236      1079  TIP3      H1            -13.4522387078      -12.0931063765      -19.3917141586  W2        1079            0.0000000000
      3237      1079  TIP3      H2            -13.5537987078      -13.1983663765      -20.4212641586  W2        1079            0.0000000000
      3238      1080  TIP3      OH2           -12.6830287078       -4.9781763765      -16.6426541586  W2        1080            0.0000000000
      3239      1080  TIP3      H1            -12.6882687078       -4.0988263765      -17.0207241586  W2        1080            0.0000000000
      3240      1080  TIP3      H2            -13.5366187078       -5.0617663765      -16.2176641586  W2        1080            0.0000000000
      3241      1081  TIP3      OH2           -16.5619387078       -5.3073863765      -25.8607241586  W2        1081            0.0000000000
      3242      1081  TIP3      H1            -16.8338487078       -5.0782863765      -26.7494341586  W2        1081            0.0000000000
      3243      1081  TIP3      H2            -16.5163687078       -4.4695063765      -25.4001941586  W2        1081            0.0000000000
      3244      1082  TIP3      OH2            -2.9369687078       -3.6857963765      -19.1478741586  W2        1082            0.0000000000
      3245      1082  TIP3      H1             -3.8785987078       -3.6274063765      -18.9861841586  W2        1082            0.0000000000
      3246      1082  TIP3      H2             -2.6603587078       -2.7797463765      -19.2849041586  W2        1082            0.0000000000
      3247      1083  TIP3      OH2            -2.6362687078      -15.3992663765      -17.7304841586  W2        1083            0.0000000000
      3248      1083  TIP3      H1             -3.3723487078      -14.7885563765      -17.7683541586  W2        1083            0.0000000000
      3249      1083  TIP3      H2             -1.9528687078      -14.9843663765      -18.2568441586  W2        1083            0.0000000000
      3250      1084  TIP3      OH2            -9.6331287078      -17.3125363765      -20.2646841586  W2        1084            0.0000000000
      3251      1084  TIP3      H1             -9.7507087078      -18.2609363765      -20.3188541586  W2        1084            0.0000000000
      3252      1084  TIP3      H2            -10.4881187078      -16.9799263765      -19.9915741586  W2        1084            0.0000000000
      3253      1085  TIP3      OH2            -4.6848487078       -1.9044463765      -22.5227141586  W2        1085            0.0000000000
      3254      1085  TIP3      H1             -4.2596187078       -2.6116563765      -23.0077541586  W2        1085            0.0000000000
      3255      1085  TIP3      H2             -4.3678487078       -1.1031763765      -22.9394941586  W2        1085            0.0000000000
      3256      1086  TIP3      OH2            -3.5251987078       -4.0035963765      -24.0140541586  W2        1086            0.0000000000
      3257      1086  TIP3      H1             -3.7827187078       -4.6935863765      -24.6254641586  W2        1086            0.0000000000
      3258      1086  TIP3      H2             -3.4541187078       -4.4464763765      -23.1684641586  W2        1086            0.0000000000
      3259      1087  TIP3      OH2            -1.8391787078       -5.4369263765      -15.5367041586  W2        1087            0.0000000000
      3260      1087  TIP3      H1             -1.6995487078       -6.0286763765      -16.2760041586  W2        1087            0.0000000000
      3261      1087  TIP3      H2             -1.6718987078       -4.5643363765      -15.8928241586  W2        1087            0.0000000000
      3262      1088  TIP3      OH2            -7.3666387078       -8.4749763765      -25.7641041586  W2        1088            0.0000000000
      3263      1088  TIP3      H1             -8.0780887078       -7.9400063765      -26.1160541586  W2        1088            0.0000000000
      3264      1088  TIP3      H2             -6.6756787078       -8.4197663765      -26.4242141586  W2        1088            0.0000000000
      3265      1089  TIP3      OH2            -7.3127187078      -10.0175463765      -28.7256041586  W2        1089            0.0000000000
      3266      1089  TIP3      H1             -6.6117287078       -9.9948563765      -28.0742041586  W2        1089            0.0000000000
      3267      1089  TIP3      H2             -7.0104287078      -10.6455763765      -29.3816741586  W2        1089            0.0000000000
      3268      1090  TIP3      OH2             0.0027512922       -9.0971263765      -17.4706641586  W2        1090            0.0000000000
      3269      1090  TIP3      H1             -0.6498387078       -8.4025663765      -17.3815741586  W2        1090            0.0000000000
      3270      1090  TIP3      H2              0.4677812922       -8.8870363765      -18.2805041586  W2        1090            0.0000000000
      3271      1091  TIP3      OH2            -3.9608687078       -8.2656463765      -24.8125141586  W2        1091            0.0000000000
      3272      1091  TIP3      H1             -4.6927687078       -8.0372763765      -24.2394541586  W2        1091            0.0000000000
      3273      1091  TIP3      H2             -3.5136487078       -8.9793763765      -24.3577641586  W2        1091            0.0000000000
      3274      1092  TIP3      OH2            -4.0635187078      -10.0913863765      -15.7448141586  W2        1092            0.0000000000
      3275      1092  TIP3      H1             -3.9836087078       -9.3279463765      -15.1729641586  W2        1092            0.0000000000
      3276      1092  TIP3      H2             -4.6647487078       -9.8121463765      -16.4353041586  W2        1092            0.0000000000
      3277      1093  TIP3      OH2           -12.3154987078       -7.6350263765      -22.9300141586  W2        1093            0.0000000000
      3278      1093  TIP3      H1            -12.6459787078       -8.0056863765      -23.7483141586  W2        1093            0.0000000000
      3279      1093  TIP3      H2            -11.7270887078       -8.3056263765      -22.5831841586  W2        1093            0.0000000000
      3280      1094  TIP3      OH2           -10.9487487078       -4.2069663765      -20.2487941586  W2        1094            0.0000000000
      3281      1094  TIP3      H1            -11.0436187078       -4.7856563765      -21.0053341586  W2        1094            0.0000000000
      3282      1094  TIP3      H2            -10.2193887078       -4.5783963765      -19.7525141586  W2        1094            0.0000000000
      3283      1095  TIP3      OH2           -11.9489487078       -8.8664663765      -19.2965141586  W2        1095            0.0000000000
      3284      1095  TIP3      H1            -11.3836987078       -8.7450463765      -20.0593941586  W2        1095            0.0000000000
      3285      1095  TIP3      H2            -11.6300587078       -8.2289663765      -18.6576641586  W2        1095            0.0000000000
      3286      1096  TIP3      OH2            -5.6397287078       -3.3632763765      -18.5624641586  W2        1096            0.0000000000
      3287      1096  TIP3      H1             -5.8800687078       -2.7009663765      -17.9145441586  W2        1096            0.0000000000
      3288      1096  TIP3      H2             -5.8379087078       -4.1977563765      -18.1375041586  W2        1096            0.0000000000
      3289      1097  TIP3      OH2           -11.0688787078       -4.4671963765      -14.5793241586  W2        1097            0.0000000000
      3290      1097  TIP3      H1            -11.3801287078       -3.6848763765      -14.1240041586  W2        1097            0.0000000000
      3291      1097  TIP3      H2            -11.7188587078       -4.6202863765      -15.2651241586  W2        1097            0.0000000000
      3292      1098  TIP3      OH2            -5.0899187078       -9.1033563765      -27.1273941586  W2        1098            0.0000000000
      3293      1098  TIP3      H1             -4.5103687078       -8.9533263765      -26.3805041586  W2        1098            0.0000000000
      3294      1098  TIP3      H2             -4.6759187078       -8.6326163765      -27.8507541586  W2        1098            0.0000000000
      3295      1099  TIP3      OH2           -14.1488887078       -8.2690863765      -15.3507541586  W2        1099            0.0000000000
      3296      1099  TIP3      H1            -14.0785687078       -7.6184063765      -14.6522541586  W2        1099            0.0000000000
      3297      1099  TIP3      H2            -15.0396687078       -8.1663363765      -15.6856641586  W2        1099            0.0000000000
      3298      1100  TIP3      OH2            -7.3634287078       -2.3665063765      -23.6920841586  W2        1100            0.0000000000
      3299      1100  TIP3      H1             -6.8896687078       -2.0708763765      -22.9146641586  W2        1100            0.0000000000
      3300      1100  TIP3      H2             -7.9264987078       -1.6283463765      -23.9251241586  W2        1100            0.0000000000
      3301      1101  TIP3      OH2           -12.8292887078       -2.3956963765      -13.8159441586  W2        1101            0.0000000000
      3302      1101  TIP3      H1            -12.8217587078       -2.5317263765      -14.7633941586  W2        1101            0.0000000000
      3303      1101  TIP3      H2            -13.7452487078       -2.5128863765      -13.5639441586  W2        1101            0.0000000000
      3304      1102  TIP3      OH2            -1.3910787078      -17.3533163765      -27.3144241586  W2        1102            0.0000000000
      3305      1102  TIP3      H1             -2.2910087078      -17.2144163765      -27.0193641586  W2        1102            0.0000000000
      3306      1102  TIP3      H2             -1.1392387078      -16.5218563765      -27.7162541586  W2        1102            0.0000000000
      3307      1103  TIP3      OH2           -13.3252287078       -8.5655963765      -25.3407341586  W2        1103            0.0000000000
      3308      1103  TIP3      H1            -13.6170987078       -7.7974263765      -25.8316041586  W2        1103            0.0000000000
      3309      1103  TIP3      H2            -13.9997087078       -9.2249763765      -25.5035941586  W2        1103            0.0000000000
      3310      1104  TIP3      OH2            -0.2019387078       -2.9870763765      -28.9380341586  W2        1104            0.0000000000
      3311      1104  TIP3      H1             -0.1285887078       -2.0480563765      -28.7675041586  W2        1104            0.0000000000
      3312      1104  TIP3      H2              0.7035712922       -3.2922163765      -28.9943041586  W2        1104            0.0000000000
      3313      1105  TIP3      OH2           -17.2322187078       -6.2026763765      -16.5257541586  W2        1105            0.0000000000
      3314      1105  TIP3      H1            -17.7333787078       -6.2307363765      -17.3407841586  W2        1105            0.0000000000
      3315      1105  TIP3      H2            -17.2268487078       -7.1083563765      -16.2160241586  W2        1105            0.0000000000
      3316      1106  TIP3      OH2           -17.4819487078       -3.4222963765      -19.6417341586  W2        1106            0.0000000000
      3317      1106  TIP3      H1            -16.5358887078       -3.5665963765      -19.6607841586  W2        1106            0.0000000000
      3318      1106  TIP3      H2            -17.5943187078       -2.6380163765      -19.1046141586  W2        1106            0.0000000000
      3319      1107  TIP3      OH2             0.7159012922       -2.7563263765      -13.9593641586  W2        1107            0.0000000000
      3320      1107  TIP3      H1              0.6665812922       -3.7115163765      -13.9966041586  W2        1107            0.0000000000
      3321      1107  TIP3      H2             -0.1108687078       -2.4887963765      -13.5579841586  W2        1107            0.0000000000
      3322      1108  TIP3      OH2            -8.3056987078       -3.1824063765      -15.0832241586  W2        1108            0.0000000000
      3323      1108  TIP3      H1             -8.2182387078       -2.3559463765      -14.6083141586  W2        1108            0.0000000000
      3324      1108  TIP3      H2             -9.1691887078       -3.5120263765      -14.8342941586  W2        1108            0.0000000000
      3325      1109  TIP3      OH2            -7.8911187078        0.5899636235      -25.2771641586  W2        1109            0.0000000000
      3326      1109  TIP3      H1             -7.9665187078        0.4686836235      -26.2236441586  W2        1109            0.0000000000
      3327      1109  TIP3      H2             -7.8582487078        1.5392336235      -25.1587041586  W2        1109            0.0000000000
      3328      1110  TIP3      OH2           -14.2377387078       -0.6213363765      -23.4962641586  W2        1110            0.0000000000
      3329      1110  TIP3      H1            -14.0856987078       -0.9692963765      -22.6176141586  W2        1110            0.0000000000
      3330      1110  TIP3      H2            -15.0886987078       -0.9776063765      -23.7515441586  W2        1110            0.0000000000
      3331      1111  TIP3      OH2            -4.7895187078       -0.2560163765      -28.2749241586  W2        1111            0.0000000000
      3332      1111  TIP3      H1             -4.4146787078       -1.0004063765      -28.7456641586  W2        1111            0.0000000000
      3333      1111  TIP3      H2             -4.7851487078       -0.5259563765      -27.3565941586  W2        1111            0.0000000000
      3334      1112  TIP3      OH2            -5.1207087078       -0.3303063765      -25.5257041586  W2        1112            0.0000000000
      3335      1112  TIP3      H1             -6.0557287078       -0.2301163765      -25.3470041586  W2        1112            0.0000000000
      3336      1112  TIP3      H2             -4.8405187078       -1.0397063765      -24.9473841586  W2        1112            0.0000000000
      3337      1113  TIP3      OH2            -2.1321187078      -11.2630763765      -13.4791441586  W2        1113            0.0000000000
      3338      1113  TIP3      H1             -2.5394387078      -10.7825163765      -14.1998141586  W2        1113            0.0000000000
      3339      1113  TIP3      H2             -2.0915487078      -12.1684763765      -13.7870641586  W2        1113            0.0000000000
      3340      1114  TIP3      OH2           -14.9831687078       -4.8791363765      -15.4824741586  W2        1114            0.0000000000
      3341      1114  TIP3      H1            -14.7670387078       -5.2405763765      -14.6228941586  W2        1114            0.0000000000
      3342      1114  TIP3      H2            -15.8386987078       -5.2537563765      -15.6921241586  W2        1114            0.0000000000
      3343      1115  TIP3      OH2           -12.3643687078      -16.4090863765      -19.4870541586  W2        1115            0.0000000000
      3344      1115  TIP3      H1            -13.2259987078      -16.4962663765      -19.8947641586  W2        1115            0.0000000000
      3345      1115  TIP3      H2            -12.3867987078      -15.5530763765      -19.0592941586  W2        1115            0.0000000000
      3346      1116  TIP3      OH2            -7.7015887078      -16.6870463765      -16.1123541586  W2        1116            0.0000000000
      3347      1116  TIP3      H1             -7.2812787078      -17.1023363765      -15.3592941586  W2        1116            0.0000000000
      3348      1116  TIP3      H2             -8.6346287078      -16.8657163765      -15.9951541586  W2        1116            0.0000000000
      3349      1117  TIP3      OH2            -4.3750987078      -12.9315263765      -15.2589041586  W2        1117            0.0000000000
      3350      1117  TIP3      H1             -4.8891487078      -13.0573063765      -14.4613041586  W2        1117            0.0000000000
      3351      1117  TIP3      H2             -4.5306287078      -12.0192163765      -15.5032841586  W2        1117            0.0000000000
      3352      1118  TIP3      OH2            -3.6126087078       -8.0705263765      -29.4976041586  W2        1118            0.0000000000
      3353      1118  TIP3      H1             -3.5705287078       -8.2931363765      -30.4276041586  W2        1118            0.0000000000
      3354      1118  TIP3      H2             -2.7633987078       -7.6718163765      -29.3076141586  W2        1118            0.0000000000
      3355      1119  TIP3      OH2            -8.0398587078      -14.1947063765      -28.8272741586  W2        1119            0.0000000000
      3356      1119  TIP3      H1             -8.2933787078      -14.1755463765      -27.9044641586  W2        1119            0.0000000000
      3357      1119  TIP3      H2             -8.2966487078      -15.0661663765      -29.1286541586  W2        1119            0.0000000000
      3358      1120  TIP3      OH2           -12.2733587078      -11.4436363765      -18.3920341586  W2        1120            0.0000000000
      3359      1120  TIP3      H1            -12.9151487078      -11.4839063765      -17.6830241586  W2        1120            0.0000000000
      3360      1120  TIP3      H2            -12.2361587078      -10.5171663765      -18.6297341586  W2        1120            0.0000000000
      3361      1121  TIP3      OH2           -12.2764487078      -11.2226263765      -23.4800341586  W2        1121            0.0000000000
      3362      1121  TIP3      H1            -13.1691587078      -11.5630163765      -23.5386541586  W2        1121            0.0000000000
      3363      1121  TIP3      H2            -11.8257887078      -11.5995363765      -24.2357141586  W2        1121            0.0000000000
      3364      1122  TIP3      OH2            -6.7408987078      -10.8065963765      -24.6629541586  W2        1122            0.0000000000
      3365      1122  TIP3      H1             -7.1498687078       -9.9917363765      -24.9544741586  W2        1122            0.0000000000
      3366      1122  TIP3      H2             -6.0202787078      -10.9465863765      -25.2772441586  W2        1122            0.0000000000
      3367      1123  TIP3      OH2            -7.6387387078      -10.6309563765      -13.1748841586  W2        1123            0.0000000000
      3368      1123  TIP3      H1             -8.2013587078      -11.3357963765      -12.8541041586  W2        1123            0.0000000000
      3369      1123  TIP3      H2             -6.8123987078      -10.7517663765      -12.7071241586  W2        1123            0.0000000000
      3370      1124  TIP3      OH2            -5.7361287078      -11.3605563765      -21.8489841586  W2        1124            0.0000000000
      3371      1124  TIP3      H1             -5.9316787078      -10.7548763765      -22.5639241586  W2        1124            0.0000000000
      3372      1124  TIP3      H2             -5.5548687078      -12.1940363765      -22.2833541586  W2        1124            0.0000000000
      3373      1125  TIP3      OH2           -14.5233087078      -11.1232863765      -16.5248341586  W2        1125            0.0000000000
      3374      1125  TIP3      H1            -14.5613687078      -10.7231263765      -15.6561241586  W2        1125            0.0000000000
      3375      1125  TIP3      H2            -15.0141987078      -11.9400463765      -16.4345441586  W2        1125            0.0000000000
      3376      1126  TIP3      OH2           -11.1575687078      -13.7490563765      -29.7262341586  W2        1126            0.0000000000
      3377      1126  TIP3      H1            -11.5884987078      -14.1940463765      -28.9964941586  W2        1126            0.0000000000
      3378      1126  TIP3      H2            -11.8756987078      -13.3774263765      -30.2384841586  W2        1126            0.0000000000
      3379      1127  TIP3      OH2           -17.9152287078      -14.0071063765      -22.6743641586  W2        1127            0.0000000000
      3380      1127  TIP3      H1            -17.2844587078      -14.0358963765      -21.9549741586  W2        1127            0.0000000000
      3381      1127  TIP3      H2            -17.4657987078      -14.4322363765      -23.4047741586  W2        1127            0.0000000000
      3382      1128  TIP3      OH2           -16.6410187078      -13.2609063765      -27.2503241586  W2        1128            0.0000000000
      3383      1128  TIP3      H1            -16.1668487078      -12.6699163765      -27.8352341586  W2        1128            0.0000000000
      3384      1128  TIP3      H2            -17.3583787078      -12.7306163765      -26.9033141586  W2        1128            0.0000000000
      3385      1129  TIP3      OH2            -6.4722087078       -9.7224263765      -17.1777441586  W2        1129            0.0000000000
      3386      1129  TIP3      H1             -6.1487287078      -10.3534563765      -17.8206941586  W2        1129            0.0000000000
      3387      1129  TIP3      H2             -6.9122787078      -10.2572063765      -16.5170041586  W2        1129            0.0000000000
      3388      1130  TIP3      OH2            -9.6949187078      -13.7948763765      -22.3936241586  W2        1130            0.0000000000
      3389      1130  TIP3      H1            -10.6058087078      -13.7381963765      -22.1050241586  W2        1130            0.0000000000
      3390      1130  TIP3      H2             -9.1896287078      -13.8553263765      -21.5829041586  W2        1130            0.0000000000
      3391      1131  TIP3      OH2           -14.8665787078      -12.1662463765      -23.5668641586  W2        1131            0.0000000000
      3392      1131  TIP3      H1            -15.7557787078      -12.0666963765      -23.9069041586  W2        1131            0.0000000000
      3393      1131  TIP3      H2            -14.5700887078      -13.0079463765      -23.9130741586  W2        1131            0.0000000000
      3394      1132  TIP3      OH2           -11.2133987078      -12.1659863765      -25.9104041586  W2        1132            0.0000000000
      3395      1132  TIP3      H1            -10.2818487078      -12.0369863765      -25.7320941586  W2        1132            0.0000000000
      3396      1132  TIP3      H2            -11.4283687078      -11.4965563765      -26.5599341586  W2        1132            0.0000000000
      3397      1133  TIP3      OH2            -5.2897287078      -14.5602463765      -19.1294441586  W2        1133            0.0000000000
      3398      1133  TIP3      H1             -5.9665687078      -14.4289363765      -18.4654741586  W2        1133            0.0000000000
      3399      1133  TIP3      H2             -5.7752387078      -14.7152963765      -19.9396741586  W2        1133            0.0000000000
      3400      1134  TIP3      OH2           -12.5393787078      -10.9717663765      -28.3437941586  W2        1134            0.0000000000
      3401      1134  TIP3      H1            -13.0818687078      -11.3513863765      -29.0350341586  W2        1134            0.0000000000
      3402      1134  TIP3      H2            -11.7058887078      -10.7772963765      -28.7723841586  W2        1134            0.0000000000
      3403      1135  TIP3      OH2            -2.0022187078        1.1112936235      -12.8526841586  W2        1135            0.0000000000
      3404      1135  TIP3      H1             -1.8023487078        1.5354836235      -13.6871541586  W2        1135            0.0000000000
      3405      1135  TIP3      H2             -1.3468487078        1.4551136235      -12.2456441586  W2        1135            0.0000000000
      3406      1136  TIP3      OH2           -14.4042387078       -6.4145763765      -13.2446341586  W2        1136            0.0000000000
      3407      1136  TIP3      H1            -13.6719987078       -6.1599863765      -12.6831841586  W2        1136            0.0000000000
      3408      1136  TIP3      H2            -15.1843687078       -6.2100363765      -12.7290941586  W2        1136            0.0000000000
      3409      1137  TIP3      OH2            -8.3749487078      -11.0075763765      -20.5066641586  W2        1137            0.0000000000
      3410      1137  TIP3      H1             -7.8106087078      -11.5539163765      -21.0537041586  W2        1137            0.0000000000
      3411      1137  TIP3      H2             -8.5226087078      -11.5293863765      -19.7179041586  W2        1137            0.0000000000
      3412      1138  TIP3      OH2           -13.3729787078      -14.8709663765      -24.0881841586  W2        1138            0.0000000000
      3413      1138  TIP3      H1            -13.6900287078      -15.7734363765      -24.1236441586  W2        1138            0.0000000000
      3414      1138  TIP3      H2            -12.5915687078      -14.8692263765      -24.6410241586  W2        1138            0.0000000000
      3415      1139  TIP3      OH2            -9.7483587078      -12.6189663765      -18.0926241586  W2        1139            0.0000000000
      3416      1139  TIP3      H1            -10.5838287078      -12.1650163765      -17.9823841586  W2        1139            0.0000000000
      3417      1139  TIP3      H2             -9.2242987078      -12.3431163765      -17.3406341586  W2        1139            0.0000000000
      3418      1140  TIP3      OH2            -9.2040987078       -6.4061963765      -26.4079841586  W2        1140            0.0000000000
      3419      1140  TIP3      H1             -9.9489987078       -6.9136663765      -26.7301941586  W2        1140            0.0000000000
      3420      1140  TIP3      H2             -9.3383787078       -6.3573963765      -25.4615041586  W2        1140            0.0000000000
      3421      1141  TIP3      OH2            -2.0542087078       -7.2733763765      -17.6212241586  W2        1141            0.0000000000
      3422      1141  TIP3      H1             -1.4123287078       -6.8167463765      -18.1650041586  W2        1141            0.0000000000
      3423      1141  TIP3      H2             -2.8845187078       -7.1601363765      -18.0838141586  W2        1141            0.0000000000
      3424      1142  TIP3      OH2            -5.3064187078      -13.5922063765      -28.2087241586  W2        1142            0.0000000000
      3425      1142  TIP3      H1             -6.2449987078      -13.4806463765      -28.3598441586  W2        1142            0.0000000000
      3426      1142  TIP3      H2             -5.0092087078      -12.7355163765      -27.9021541586  W2        1142            0.0000000000
      3427      1143  TIP3      OH2            -7.6848887078       -6.2218663765      -15.1710741586  W2        1143            0.0000000000
      3428      1143  TIP3      H1             -8.0302787078       -6.6036263765      -14.3641141586  W2        1143            0.0000000000
      3429      1143  TIP3      H2             -7.8848787078       -5.2885063765      -15.0997841586  W2        1143            0.0000000000
      3430      1144  TIP3      OH2            -4.5880687078      -11.7249363765      -26.5479841586  W2        1144            0.0000000000
      3431      1144  TIP3      H1             -3.6961687078      -11.8624363765      -26.2288641586  W2        1144            0.0000000000
      3432      1144  TIP3      H2             -4.5317087078      -10.9343263765      -27.0846341586  W2        1144            0.0000000000
      3433      1145  TIP3      OH2           -14.0792687078       -7.1111963765      -20.6381941586  W2        1145            0.0000000000
      3434      1145  TIP3      H1            -13.3345487078       -7.1136263765      -21.2395441586  W2        1145            0.0000000000
      3435      1145  TIP3      H2            -14.0016087078       -7.9348163765      -20.1566841586  W2        1145            0.0000000000
      3436      1146  TIP3      OH2            -7.0786887078       -4.9477663765      -27.3825241586  W2        1146            0.0000000000
      3437      1146  TIP3      H1             -7.3738487078       -4.1209763765      -27.0010441586  W2        1146            0.0000000000
      3438      1146  TIP3      H2             -7.7816887078       -5.5670763765      -27.1863841586  W2        1146            0.0000000000
      3439      1147  TIP3      OH2           -17.0712987078       -8.6505063765      -15.3233441586  W2        1147            0.0000000000
      3440      1147  TIP3      H1            -16.8484387078       -9.0685463765      -14.4915941586  W2        1147            0.0000000000
      3441      1147  TIP3      H2            -17.6732887078       -9.2630063765      -15.7460641586  W2        1147            0.0000000000
      3442      1148  TIP3      OH2           -10.0548087078       -9.1335163765      -13.1103741586  W2        1148            0.0000000000
      3443      1148  TIP3      H1            -10.3507287078       -9.2992163765      -14.0054641586  W2        1148            0.0000000000
      3444      1148  TIP3      H2             -9.1232887078       -9.3534863765      -13.1209841586  W2        1148            0.0000000000
      3445      1149  TIP3      OH2            -5.4345287078       -3.7603163765      -15.2205741586  W2        1149            0.0000000000
      3446      1149  TIP3      H1             -6.3350987078       -3.5770563765      -15.4881841586  W2        1149            0.0000000000
      3447      1149  TIP3      H2             -5.4004187078       -3.5013863765      -14.2996941586  W2        1149            0.0000000000
      3448      1150  TIP3      OH2             0.2968012922      -11.5155263765      -26.8533141586  W2        1150            0.0000000000
      3449      1150  TIP3      H1             -0.2575687078      -11.9117263765      -27.5255641586  W2        1150            0.0000000000
      3450      1150  TIP3      H2              0.3971612922      -10.6050063765      -27.1309841586  W2        1150            0.0000000000
      3451      1151  TIP3      OH2             0.2600012922       -5.7153563765      -14.0161641586  W2        1151            0.0000000000
      3452      1151  TIP3      H1             -0.5911487078       -5.4769763765      -14.3835241586  W2        1151            0.0000000000
      3453      1151  TIP3      H2              0.8503412922       -5.7320363765      -14.7694541586  W2        1151            0.0000000000
      3454      1152  TIP3      OH2            -1.4080287078       -2.7294863765      -26.3881041586  W2        1152            0.0000000000
      3455      1152  TIP3      H1             -1.7809187078       -3.5551063765      -26.0790441586  W2        1152            0.0000000000
      3456      1152  TIP3      H2             -1.1306787078       -2.9125463765      -27.2857641586  W2        1152            0.0000000000
      3457      1153  TIP3      OH2            -4.2476387078       -7.9215363765      -19.3669141586  W2        1153            0.0000000000
      3458      1153  TIP3      H1             -5.1759487078       -8.1533463765      -19.3939841586  W2        1153            0.0000000000
      3459      1153  TIP3      H2             -3.7965287078       -8.6985563765      -19.6970341586  W2        1153            0.0000000000
      3460      1154  TIP3      OH2           -11.7043287078       -3.5933763765      -23.2340441586  W2        1154            0.0000000000
      3461      1154  TIP3      H1            -11.1771087078       -2.8199363765      -23.4341641586  W2        1154            0.0000000000
      3462      1154  TIP3      H2            -12.5844787078       -3.3684563765      -23.5356441586  W2        1154            0.0000000000
      3463      1155  TIP3      OH2           -15.9495587078       -8.7309663765      -28.6468041586  W2        1155            0.0000000000
      3464      1155  TIP3      H1            -15.3335687078       -8.1042463765      -28.2673241586  W2        1155            0.0000000000
      3465      1155  TIP3      H2            -16.8112987078       -8.4149863765      -28.3751541586  W2        1155            0.0000000000
      3466      1156  TIP3      OH2           -10.2770987078       -5.9303863765      -23.6576141586  W2        1156            0.0000000000
      3467      1156  TIP3      H1            -10.5180987078       -5.0049463765      -23.6160841586  W2        1156            0.0000000000
      3468      1156  TIP3      H2            -11.0177387078       -6.3892563765      -23.2612241586  W2        1156            0.0000000000
      3469      1157  TIP3      OH2            -9.7624387078       -1.7810263765      -17.3425041586  W2        1157            0.0000000000
      3470      1157  TIP3      H1             -9.3999687078       -0.9264663765      -17.5760641586  W2        1157            0.0000000000
      3471      1157  TIP3      H2             -9.2309187078       -2.0728663765      -16.6018741586  W2        1157            0.0000000000
      3472      1158  TIP3      OH2           -11.5940187078       -0.9086263765      -24.1123941586  W2        1158            0.0000000000
      3473      1158  TIP3      H1            -12.5439687078       -0.8028863765      -24.0610641586  W2        1158            0.0000000000
      3474      1158  TIP3      H2            -11.2422087078       -0.0878863765      -23.7676441586  W2        1158            0.0000000000
      3475      1159  TIP3      OH2            -6.2183587078       -5.6819563765      -17.6419441586  W2        1159            0.0000000000
      3476      1159  TIP3      H1             -6.6442287078       -5.9097863765      -16.8155441586  W2        1159            0.0000000000
      3477      1159  TIP3      H2             -5.6377787078       -6.4207763765      -17.8244141586  W2        1159            0.0000000000
      3478      1160  TIP3      OH2            -4.0154687078       -4.7529063765      -28.5680441586  W2        1160            0.0000000000
      3479      1160  TIP3      H1             -3.6621587078       -5.1329263765      -27.7636941586  W2        1160            0.0000000000
      3480      1160  TIP3      H2             -4.9641187078       -4.8464263765      -28.4811141586  W2        1160            0.0000000000
      3481      1161  TIP3      OH2            -3.5599387078       -1.1300063765      -15.1724641586  W2        1161            0.0000000000
      3482      1161  TIP3      H1             -4.1616187078       -1.6857163765      -15.6678341586  W2        1161            0.0000000000
      3483      1161  TIP3      H2             -3.2785687078       -0.4630263765      -15.7987241586  W2        1161            0.0000000000
      3484      1162  TIP3      OH2             0.4879712922       -0.2736563765      -28.3670241586  W2        1162            0.0000000000
      3485      1162  TIP3      H1              1.2317612922        0.3123936235      -28.5068641586  W2        1162            0.0000000000
      3486      1162  TIP3      H2             -0.2062187078        0.2949236235      -28.0337841586  W2        1162            0.0000000000
      3487      1163  TIP3      OH2           -15.4373487078      -13.8972363765      -15.7652041586  W2        1163            0.0000000000
      3488      1163  TIP3      H1            -16.3301187078      -13.5586963765      -15.8328041586  W2        1163            0.0000000000
      3489      1163  TIP3      H2            -15.5360687078      -14.7526263765      -15.3471241586  W2        1163            0.0000000000
      3490      1164  TIP3      OH2            -3.1495387078       -6.0807063765      -26.3412541586  W2        1164            0.0000000000
      3491      1164  TIP3      H1             -3.4267787078       -6.8087763765      -25.7851441586  W2        1164            0.0000000000
      3492      1164  TIP3      H2             -2.2222387078       -5.9615063765      -26.1359941586  W2        1164            0.0000000000
      3493      1165  TIP3      OH2           -15.7861487078       -2.0927963765      -17.3302641586  W2        1165            0.0000000000
      3494      1165  TIP3      H1            -15.5691187078       -3.0245563765      -17.3612941586  W2        1165            0.0000000000
      3495      1165  TIP3      H2            -15.5397987078       -1.8182963765      -16.4469841586  W2        1165            0.0000000000
      3496      1166  TIP3      OH2            -9.9246887078       -3.6412963765      -30.1210441586  W2        1166            0.0000000000
      3497      1166  TIP3      H1             -9.6857087078       -4.3894863765      -30.6681541586  W2        1166            0.0000000000
      3498      1166  TIP3      H2            -10.1935587078       -4.0291263765      -29.2882641586  W2        1166            0.0000000000
      3499      1167  TIP3      OH2           -10.9876287078       -4.0709163765      -27.6647841586  W2        1167            0.0000000000
      3500      1167  TIP3      H1            -10.8408287078       -4.5909363765      -26.8746941586  W2        1167            0.0000000000
      3501      1167  TIP3      H2            -10.9904587078       -3.1641563765      -27.3581941586  W2        1167            0.0000000000
      3502      1168  TIP3      OH2           -14.5345187078       -6.8185863765      -27.1542441586  W2        1168            0.0000000000
      3503      1168  TIP3      H1            -15.2205887078       -6.4663363765      -26.5872741586  W2        1168            0.0000000000
      3504      1168  TIP3      H2            -14.0117287078       -6.0556263765      -27.4008141586  W2        1168            0.0000000000
      3505      1169  TIP3      OH2            -6.7030087078      -14.1562063765      -16.8753441586  W2        1169            0.0000000000
      3506      1169  TIP3      H1             -6.0042187078      -14.0823363765      -16.2253741586  W2        1169            0.0000000000
      3507      1169  TIP3      H2             -7.0838687078      -15.0207063765      -16.7210541586  W2        1169            0.0000000000
      3508      1170  TIP3      OH2            -5.9185187078      -14.5040363765      -25.7781141586  W2        1170            0.0000000000
      3509      1170  TIP3      H1             -5.6986887078      -14.0324963765      -26.5815741586  W2        1170            0.0000000000
      3510      1170  TIP3      H2             -5.3601187078      -14.1097763765      -25.1080541586  W2        1170            0.0000000000
      3511      1171  TIP3      OH2            -8.2499087078       -2.3735563765      -26.9153641586  W2        1171            0.0000000000
      3512      1171  TIP3      H1             -9.0662987078       -1.8765863765      -26.8629341586  W2        1171            0.0000000000
      3513      1171  TIP3      H2             -7.7202787078       -1.8982063765      -27.5554841586  W2        1171            0.0000000000
      3514      1172  TIP3      OH2            -8.7185287078      -12.7761563765      -24.9432741586  W2        1172            0.0000000000
      3515      1172  TIP3      H1             -7.9062687078      -12.2718363765      -24.8971041586  W2        1172            0.0000000000
      3516      1172  TIP3      H2             -8.9632287078      -12.9211863765      -24.0293141586  W2        1172            0.0000000000
      3517      1173  TIP3      OH2            -8.1828887078      -11.7898863765      -15.7586141586  W2        1173            0.0000000000
      3518      1173  TIP3      H1             -8.0638587078      -11.2163463765      -15.0015741586  W2        1173            0.0000000000
      3519      1173  TIP3      H2             -7.5274287078      -12.4779463765      -15.6438341586  W2        1173            0.0000000000
      3520      1174  TIP3      OH2            -7.8348587078      -15.6948563765      -24.0051641586  W2        1174            0.0000000000
      3521      1174  TIP3      H1             -8.1815087078      -15.0777963765      -23.3607341586  W2        1174            0.0000000000
      3522      1174  TIP3      H2             -7.1761687078      -15.1942863765      -24.4866141586  W2        1174            0.0000000000
      3523      1175  TIP3      OH2           -10.9115987078       -1.3298363765      -26.9336741586  W2        1175            0.0000000000
      3524      1175  TIP3      H1            -10.7507287078       -0.5300863765      -27.4344141586  W2        1175            0.0000000000
      3525      1175  TIP3      H2            -11.1088187078       -1.0232363765      -26.0486141586  W2        1175            0.0000000000
      3526      1176  TIP3      OH2           -12.1771587078      -14.6319163765      -27.3179141586  W2        1176            0.0000000000
      3527      1176  TIP3      H1            -12.2606787078      -13.7436063765      -26.9712741586  W2        1176            0.0000000000
      3528      1176  TIP3      H2            -11.2871287078      -14.8972463765      -27.0862341586  W2        1176            0.0000000000
      3529      1177  TIP3      OH2            -1.9783087078      -13.8828563765      -14.9236441586  W2        1177            0.0000000000
      3530      1177  TIP3      H1             -2.8947287078      -13.6206863765      -15.0112741586  W2        1177            0.0000000000
      3531      1177  TIP3      H2             -1.6428087078      -13.8859563765      -15.8201141586  W2        1177            0.0000000000
      3532      1178  TIP3      OH2            -3.3762087078      -10.1327563765      -20.8279141586  W2        1178            0.0000000000
      3533      1178  TIP3      H1             -4.1737687078      -10.5477363765      -21.1564141586  W2        1178            0.0000000000
      3534      1178  TIP3      H2             -2.9310987078      -10.8233863765      -20.3368641586  W2        1178            0.0000000000
      3535      1179  TIP3      OH2           -13.9186287078       -4.2046963765      -28.2574641586  W2        1179            0.0000000000
      3536      1179  TIP3      H1            -13.3264787078       -3.5052163765      -27.9812241586  W2        1179            0.0000000000
      3537      1179  TIP3      H2            -13.4593287078       -4.6377463765      -28.9770041586  W2        1179            0.0000000000
      3538      1180  TIP3      OH2           -15.6027087078      -11.5403963765      -29.1415241586  W2        1180            0.0000000000
      3539      1180  TIP3      H1            -15.6474487078      -10.6010863765      -28.9628241586  W2        1180            0.0000000000
      3540      1180  TIP3      H2            -16.4903887078      -11.7759063765      -29.4113141586  W2        1180            0.0000000000
      3541      1181  TIP3      OH2            -2.2897487078       -0.8765063765      -19.2055641586  W2        1181            0.0000000000
      3542      1181  TIP3      H1             -2.4453187078       -0.1980663765      -19.8626341586  W2        1181            0.0000000000
      3543      1181  TIP3      H2             -1.3571087078       -0.8045763765      -19.0025041586  W2        1181            0.0000000000
      3544      1182  TIP3      OH2           -14.7945087078      -16.7587363765      -20.4684241586  W2        1182            0.0000000000
      3545      1182  TIP3      H1            -15.0235287078      -16.6994863765      -21.3959241586  W2        1182            0.0000000000
      3546      1182  TIP3      H2            -15.2371687078      -17.5501863765      -20.1620141586  W2        1182            0.0000000000
      3547      1183  TIP3      OH2           -15.8641787078       -2.8180263765      -24.3078441586  W2        1183            0.0000000000
      3548      1183  TIP3      H1            -16.6963187078       -2.3457563765      -24.2807041586  W2        1183            0.0000000000
      3549      1183  TIP3      H2            -15.3183487078       -2.3082663765      -24.9065341586  W2        1183            0.0000000000
      3550      1184  TIP3      OH2           -16.5758087078       -0.2056563765      -12.9780441586  W2        1184            0.0000000000
      3551      1184  TIP3      H1            -16.0355887078       -0.4222563765      -12.2181241586  W2        1184            0.0000000000
      3552      1184  TIP3      H2            -17.0570087078       -1.0110563765      -13.1677941586  W2        1184            0.0000000000
      3553      1185  TIP3      OH2           -11.9784687078       -1.2862163765      -11.3576241586  W2        1185            0.0000000000
      3554      1185  TIP3      H1            -11.2107487078       -1.7451363765      -11.0167041586  W2        1185            0.0000000000
      3555      1185  TIP3      H2            -11.9998487078       -1.5122363765      -12.2875041586  W2        1185            0.0000000000
      3556      1186  TIP3      OH2            -7.8865087078       -1.7781563765      -29.9824441586  W2        1186            0.0000000000
      3557      1186  TIP3      H1             -8.5304087078       -2.4092963765      -29.6610741586  W2        1186            0.0000000000
      3558      1186  TIP3      H2             -7.1246787078       -2.3093563765      -30.2140941586  W2        1186            0.0000000000
      3559      1187  TIP3      OH2            -5.4015987078       -2.9061063765      -12.6284741586  W2        1187            0.0000000000
      3560      1187  TIP3      H1             -5.7526487078       -3.7628063765      -12.3854341586  W2        1187            0.0000000000
      3561      1187  TIP3      H2             -4.6752787078       -2.7634363765      -12.0215741586  W2        1187            0.0000000000
      3562      1188  TIP3      OH2            -3.2822187078       -1.9611663765      -29.7486441586  W2        1188            0.0000000000
      3563      1188  TIP3      H1             -2.9991787078       -2.7556463765      -29.2959541586  W2        1188            0.0000000000
      3564      1188  TIP3      H2             -2.5424287078       -1.7280663765      -30.3095341586  W2        1188            0.0000000000
      3565      1189  TIP3      OH2           -16.6688587078       -6.3952463765      -12.0236141586  W2        1189            0.0000000000
      3566      1189  TIP3      H1            -16.5248087078       -7.2971763765      -12.3099441586  W2        1189            0.0000000000
      3567      1189  TIP3      H2            -17.4411187078       -6.1090363765      -12.5113841586  W2        1189            0.0000000000
      3568      1190  TIP3      OH2           -12.3274887078       -6.0516763765      -29.8911541586  W2        1190            0.0000000000
      3569      1190  TIP3      H1            -12.2630787078       -6.8457163765      -29.3605141586  W2        1190            0.0000000000
      3570      1190  TIP3      H2            -11.6745687078       -6.1703963765      -30.5809541586  W2        1190            0.0000000000
      3571      1191  TIP3      OH2           -10.0132487078       -6.4254363765      -12.5909741586  W2        1191            0.0000000000
      3572      1191  TIP3      H1            -10.3418687078       -6.1546263765      -13.4482341586  W2        1191            0.0000000000
      3573      1191  TIP3      H2             -9.8614287078       -7.3664563765      -12.6784741586  W2        1191            0.0000000000
      3574      1192  TIP3      OH2            -6.9751487078       -5.0045063765      -30.1553541586  W2        1192            0.0000000000
      3575      1192  TIP3      H1             -7.2437387078       -4.8242963765      -29.2544641586  W2        1192            0.0000000000
      3576      1192  TIP3      H2             -7.1815887078       -5.9298863765      -30.2867741586  W2        1192            0.0000000000
      3577      1193  TIP3      OH2            -4.2787287078       -6.5097063765      -15.2077441586  W2        1193            0.0000000000
      3578      1193  TIP3      H1             -3.5332487078       -5.9213363765      -15.3273441586  W2        1193            0.0000000000
      3579      1193  TIP3      H2             -5.0360487078       -5.9277363765      -15.1444341586  W2        1193            0.0000000000
      3580      1194  TIP3      OH2           -15.8362087078       -9.1949163765      -12.6036841586  W2        1194            0.0000000000
      3581      1194  TIP3      H1            -15.4280887078      -10.0522563765      -12.7246241586  W2        1194            0.0000000000
      3582      1194  TIP3      H2            -16.0964487078       -9.1807863765      -11.6826541586  W2        1194            0.0000000000
      3583      1195  TIP3      OH2           -11.1781087078       -8.0790563765      -27.5853541586  W2        1195            0.0000000000
      3584      1195  TIP3      H1            -11.6379087078       -8.5632263765      -26.8995041586  W2        1195            0.0000000000
      3585      1195  TIP3      H2            -10.9232387078       -8.7475163765      -28.2213041586  W2        1195            0.0000000000
      3586      1196  TIP3      OH2           -11.8891787078      -10.1863463765      -15.2293941586  W2        1196            0.0000000000
      3587      1196  TIP3      H1            -12.5075687078       -9.5116863765      -14.9489241586  W2        1196            0.0000000000
      3588      1196  TIP3      H2            -11.5450587078       -9.8649563765      -16.0627741586  W2        1196            0.0000000000
      3589      1197  TIP3      OH2           -10.1070687078       -9.8358763765      -29.3230341586  W2        1197            0.0000000000
      3590      1197  TIP3      H1            -10.2875687078       -9.9907563765      -30.2502041586  W2        1197            0.0000000000
      3591      1197  TIP3      H2             -9.1570187078       -9.7280063765      -29.2782441586  W2        1197            0.0000000000
      3592      1198  TIP3      OH2            -6.8693587078       -7.7148163765      -11.9519141586  W2        1198            0.0000000000
      3593      1198  TIP3      H1             -5.9162387078       -7.6309063765      -11.9793141586  W2        1198            0.0000000000
      3594      1198  TIP3      H2             -7.0298987078       -8.4266363765      -11.3324241586  W2        1198            0.0000000000
      3595      1199  TIP3      OH2            -0.7172387078       -7.4814563765      -29.8772241586  W2        1199            0.0000000000
      3596      1199  TIP3      H1             -0.9907587078       -7.9059063765      -30.6903941586  W2        1199            0.0000000000
      3597      1199  TIP3      H2             -0.6778287078       -6.5500063765      -30.0941841586  W2        1199            0.0000000000
      3598      1200  TIP3      OH2           -11.5498087078      -12.8312663765      -14.1470841586  W2        1200            0.0000000000
      3599      1200  TIP3      H1            -11.3997187078      -13.5601363765      -14.7491141586  W2        1200            0.0000000000
      3600      1200  TIP3      H2            -11.5475687078      -12.0540963765      -14.7058641586  W2        1200            0.0000000000
      3601      1201  TIP3      OH2           -11.1372387078      -14.4616863765      -16.6543441586  W2        1201            0.0000000000
      3602      1201  TIP3      H1            -10.6014887078      -14.0100163765      -17.3064141586  W2        1201            0.0000000000
      3603      1201  TIP3      H2            -11.9892787078      -14.5697063765      -17.0769341586  W2        1201            0.0000000000
      3604      1202  TIP3      OH2            -9.5553987078       -9.0220663765      -16.4148241586  W2        1202            0.0000000000
      3605      1202  TIP3      H1             -8.8049187078       -9.1783163765      -16.9880441586  W2        1202            0.0000000000
      3606      1202  TIP3      H2             -9.8945687078       -8.1704063765      -16.6902741586  W2        1202            0.0000000000
      3607      1203  TIP3      OH2            -5.1397787078      -11.2068863765      -11.3862941586  W2        1203            0.0000000000
      3608      1203  TIP3      H1             -4.9476487078      -12.1379463765      -11.4978441586  W2        1203            0.0000000000
      3609      1203  TIP3      H2             -4.2821487078      -10.7819363765      -11.3967541586  W2        1203            0.0000000000
      3610      1204  TIP3      OH2            -3.8230587078       -8.4183663765      -13.3090241586  W2        1204            0.0000000000
      3611      1204  TIP3      H1             -4.1045587078       -7.7089063765      -13.8866441586  W2        1204            0.0000000000
      3612      1204  TIP3      H2             -2.8806287078       -8.4910663765      -13.4599041586  W2        1204            0.0000000000
      3613      1205  TIP3      OH2           -13.0711787078      -11.6329163765      -12.2355241586  W2        1205            0.0000000000
      3614      1205  TIP3      H1            -13.8382787078      -12.1654363765      -12.4457641586  W2        1205            0.0000000000
      3615      1205  TIP3      H2            -12.3922787078      -11.9428763765      -12.8348941586  W2        1205            0.0000000000
      3616      1206  TIP3      OH2           -10.3316887078      -17.0051163765      -16.2229841586  W2        1206            0.0000000000
      3617      1206  TIP3      H1            -10.4297287078      -16.0587963765      -16.3283641586  W2        1206            0.0000000000
      3618      1206  TIP3      H2            -11.0740687078      -17.3777363765      -16.6986341586  W2        1206            0.0000000000
      3619      1207  TIP3      OH2            -9.0676387078      -12.6835763765      -12.6591441586  W2        1207            0.0000000000
      3620      1207  TIP3      H1             -9.3030987078      -12.9029063765      -11.7576541586  W2        1207            0.0000000000
      3621      1207  TIP3      H2             -9.8509487078      -12.8904563765      -13.1688941586  W2        1207            0.0000000000
      3622      1208  TIP3      OH2            -6.3519787078      -13.5562263765      -13.5837941586  W2        1208            0.0000000000
      3623      1208  TIP3      H1             -7.2994387078      -13.5242563765      -13.4514641586  W2        1208            0.0000000000
      3624      1208  TIP3      H2             -6.0393087078      -14.1815163765      -12.9299741586  W2        1208            0.0000000000
      3625      1209  TIP3      OH2            -4.7178287078      -14.9221163765      -11.5786041586  W2        1209            0.0000000000
      3626      1209  TIP3      H1             -4.8146487078      -15.8743863765      -11.5844141586  W2        1209            0.0000000000
      3627      1209  TIP3      H2             -5.0395187078      -14.6534363765      -10.7180541586  W2        1209            0.0000000000
      3628      1210  TIP3      OH2           -14.8908987078      -13.7125363765      -12.5310541586  W2        1210            0.0000000000
      3629      1210  TIP3      H1            -14.6791587078      -14.4189263765      -13.1413041586  W2        1210            0.0000000000
      3630      1210  TIP3      H2            -15.0021487078      -14.1499363765      -11.6869341586  W2        1210            0.0000000000
      3631      1211  TIP3      OH2           -10.1098787078      -17.7113763765      -13.5517041586  W2        1211            0.0000000000
      3632      1211  TIP3      H1             -9.3980387078      -18.3511563765      -13.5657941586  W2        1211            0.0000000000
      3633      1211  TIP3      H2            -10.2108387078      -17.4445463765      -14.4653941586  W2        1211            0.0000000000
      3634      1212  TIP3      OH2            -9.7561287078      -16.0285363765      -11.4980741586  W2        1212            0.0000000000
      3635      1212  TIP3      H1             -9.8879087078      -16.5041563765      -12.3182241586  W2        1212            0.0000000000
      3636      1212  TIP3      H2            -10.3553887078      -15.2841763765      -11.5533641586  W2        1212            0.0000000000
      3637      1213  TIP3      OH2           -10.2098987078        0.8544936235      -28.3216741586  W2        1213            0.0000000000
      3638      1213  TIP3      H1             -9.2768287078        1.0123636235      -28.1778341586  W2        1213            0.0000000000
      3639      1213  TIP3      H2            -10.4740187078        1.5297936235      -28.9465241586  W2        1213            0.0000000000
      3640      1214  TIP3      OH2           -16.6414087078       -4.5091263765      -28.8388641586  W2        1214            0.0000000000
      3641      1214  TIP3      H1            -15.7274887078       -4.4302363765      -28.5654741586  W2        1214            0.0000000000
      3642      1214  TIP3      H2            -16.6340987078       -5.1961663765      -29.5053041586  W2        1214            0.0000000000
      3643      1215  TIP3      OH2           -17.9923487078        0.8837236235      -23.7614741586  W2        1215            0.0000000000
      3644      1215  TIP3      H1            -18.6396387078        0.4218936235      -24.2943541586  W2        1215            0.0000000000
      3645      1215  TIP3      H2            -17.6378887078        0.2120536235      -23.1788541586  W2        1215            0.0000000000
      3646      1216  TIP3      OH2           -17.1224287078       -1.0355763765      -21.9568541586  W2        1216            0.0000000000
      3647      1216  TIP3      H1            -17.4567487078       -1.9158463765      -21.7848341586  W2        1216            0.0000000000
      3648      1216  TIP3      H2            -16.9001887078       -0.6900763765      -21.0922941586  W2        1216            0.0000000000
      3649      1217  TIP3      OH2             0.4260512922       -0.2259363765      -18.9763741586  W2        1217            0.0000000000
      3650      1217  TIP3      H1              0.4047212922       -0.0410963765      -18.0374341586  W2        1217            0.0000000000
      3651      1217  TIP3      H2              1.1166712922        0.3424636235      -19.3172341586  W2        1217            0.0000000000
      3652      1218  TIP3      OH2            -0.0106587078       -0.6588263765      -16.0544641586  W2        1218            0.0000000000
      3653      1218  TIP3      H1             -0.4977887078       -1.3944163765      -16.4257241586  W2        1218            0.0000000000
      3654      1218  TIP3      H2              0.5386112922       -1.0524363765      -15.3765241586  W2        1218            0.0000000000
      3655      1219  TIP3      OH2            -1.5599287078       -4.8690163765      -11.4164341586  W2        1219            0.0000000000
      3656      1219  TIP3      H1             -2.4258187078       -4.9740463765      -11.0222041586  W2        1219            0.0000000000
      3657      1219  TIP3      H2             -1.1833387078       -4.1106863765      -10.9699641586  W2        1219            0.0000000000
      3658      1220  TIP3      OH2            -0.2589587078       -6.6126463765      -25.9021841586  W2        1220            0.0000000000
      3659      1220  TIP3      H1              0.5911812922       -6.1915563765      -25.7750241586  W2        1220            0.0000000000
      3660      1220  TIP3      H2             -0.2534487078       -7.3526363765      -25.2950441586  W2        1220            0.0000000000
      3661      1221  TIP3      OH2             0.1356012922       -8.5589063765      -24.0786141586  W2        1221            0.0000000000
      3662      1221  TIP3      H1             -0.5909387078       -9.0386463765      -23.6808541586  W2        1221            0.0000000000
      3663      1221  TIP3      H2              0.7169312922       -8.3534363765      -23.3464541586  W2        1221            0.0000000000
      3664      1222  TIP3      OH2            -0.1052787078       -5.7741563765      -19.1308541586  W2        1222            0.0000000000
      3665      1222  TIP3      H1              0.7281412922       -6.1521563765      -19.4114941586  W2        1222            0.0000000000
      3666      1222  TIP3      H2              0.0067512922       -4.8310363765      -19.2499441586  W2        1222            0.0000000000
      3667      1223  TIP3      OH2            -1.6190487078       -2.8964063765      -16.8240141586  W2        1223            0.0000000000
      3668      1223  TIP3      H1             -2.2665187078       -2.5712563765      -16.1984941586  W2        1223            0.0000000000
      3669      1223  TIP3      H2             -2.1366487078       -3.3366363765      -17.4981841586  W2        1223            0.0000000000
      3670      1224  TIP3      OH2             0.4039112922       -8.6580563765      -27.6874841586  W2        1224            0.0000000000
      3671      1224  TIP3      H1             -0.1179787078       -8.3016463765      -28.4063941586  W2        1224            0.0000000000
      3672      1224  TIP3      H2              0.3708312922       -7.9832763765      -27.0093941586  W2        1224            0.0000000000
      3673      1225  TIP3      OH2            -1.2471887078      -11.4184963765      -29.1367741586  W2        1225            0.0000000000
      3674      1225  TIP3      H1             -1.1507487078      -10.7517963765      -29.8168041586  W2        1225            0.0000000000
      3675      1225  TIP3      H2             -1.3872287078      -12.2338663765      -29.6182241586  W2        1225            0.0000000000
      3676      1226  TIP3      OH2            -2.0777187078      -10.0382563765      -23.5157441586  W2        1226            0.0000000000
      3677      1226  TIP3      H1             -2.2278387078      -10.9833963765      -23.5359641586  W2        1226            0.0000000000
      3678      1226  TIP3      H2             -2.4312687078       -9.7571163765      -22.6718341586  W2        1226            0.0000000000
      3679      1227  TIP3      OH2           -17.0424787078       -7.9600363765      -19.5053641586  W2        1227            0.0000000000
      3680      1227  TIP3      H1            -16.8581887078       -8.0418663765      -20.4410741586  W2        1227            0.0000000000
      3681      1227  TIP3      H2            -16.1931887078       -8.0843363765      -19.0817241586  W2        1227            0.0000000000
      3682      1228  TIP3      OH2            -1.2214287078       -8.0679263765      -13.8769141586  W2        1228            0.0000000000
      3683      1228  TIP3      H1             -0.6386987078       -8.8026963765      -13.6851941586  W2        1228            0.0000000000
      3684      1228  TIP3      H2             -0.6574987078       -7.2958963765      -13.8303341586  W2        1228            0.0000000000
      3685      1229  TIP3      OH2             0.2752812922      -10.1653463765      -13.1923741586  W2        1229            0.0000000000
      3686      1229  TIP3      H1             -0.5880487078      -10.5441363765      -13.3579041586  W2        1229            0.0000000000
      3687      1229  TIP3      H2              0.8796512922      -10.9038663765      -13.2667941586  W2        1229            0.0000000000
      3688      1230  TIP3      OH2            -1.9998087078      -14.0105163765      -30.0192241586  W2        1230            0.0000000000
      3689      1230  TIP3      H1             -1.3892287078      -14.3818363765      -29.3824041586  W2        1230            0.0000000000
      3690      1230  TIP3      H2             -2.8366587078      -14.4318263765      -29.8232241586  W2        1230            0.0000000000
      3691      1231  TIP3      OH2            -2.3672387078      -12.4556763765      -25.0532341586  W2        1231            0.0000000000
      3692      1231  TIP3      H1             -2.0875287078      -13.3626363765      -24.9290641586  W2        1231            0.0000000000
      3693      1231  TIP3      H2             -1.6080687078      -12.0215263765      -25.4423141586  W2        1231            0.0000000000
      3694      1232  TIP3      OH2            -1.7554087078      -11.8739363765      -19.6173441586  W2        1232            0.0000000000
      3695      1232  TIP3      H1             -0.8226087078      -11.6619463765      -19.6517441586  W2        1232            0.0000000000
      3696      1232  TIP3      H2             -1.9906587078      -11.7727263765      -18.6950441586  W2        1232            0.0000000000
      3697      1233  TIP3      OH2            -1.7262187078      -11.1374063765      -16.8414041586  W2        1233            0.0000000000
      3698      1233  TIP3      H1             -2.5690887078      -10.8693663765      -16.4754241586  W2        1233            0.0000000000
      3699      1233  TIP3      H2             -1.2837887078      -10.3152163765      -17.0522941586  W2        1233            0.0000000000
      3700      1234  TIP3      OH2           -17.4449987078      -12.6895363765      -13.3644841586  W2        1234            0.0000000000
      3701      1234  TIP3      H1            -16.5255087078      -12.8117063765      -13.1281741586  W2        1234            0.0000000000
      3702      1234  TIP3      H2            -17.8945487078      -13.4395663765      -12.9751341586  W2        1234            0.0000000000
      3703      1235  TIP3      OH2             0.5569412922      -17.1573863765      -11.4879041586  W2        1235            0.0000000000
      3704      1235  TIP3      H1              0.9066412922      -17.8110363765      -12.0934341586  W2        1235            0.0000000000
      3705      1235  TIP3      H2              0.7038912922      -16.3199763765      -11.9276441586  W2        1235            0.0000000000
      3706      1236  TIP3      OH2            -1.7537587078      -15.1927463765      -25.0050341586  W2        1236            0.0000000000
      3707      1236  TIP3      H1             -1.5712587078      -15.6415963765      -24.1795341586  W2        1236            0.0000000000
      3708      1236  TIP3      H2             -2.3534687078      -15.7773063765      -25.4685741586  W2        1236            0.0000000000
      3709      1237  TIP3      OH2           -16.2237487078      -14.3773763765      -20.4731941586  W2        1237            0.0000000000
      3710      1237  TIP3      H1            -15.7785887078      -15.1691263765      -20.1712241586  W2        1237            0.0000000000
      3711      1237  TIP3      H2            -15.7574487078      -13.6608563765      -20.0426341586  W2        1237            0.0000000000
      3712      1238  TIP3      OH2           -17.9197187078      -11.3780763765      -19.4041741586  W2        1238            0.0000000000
      3713      1238  TIP3      H1            -17.4277387078      -11.5990263765      -20.1949741586  W2        1238            0.0000000000
      3714      1238  TIP3      H2            -17.5576287078      -10.5377363765      -19.1232241586  W2        1238            0.0000000000
      3715      1239  TIP3      OH2             0.0766612922      -15.0479263765      -13.1387741586  W2        1239            0.0000000000
      3716      1239  TIP3      H1             -0.8407687078      -14.7772163765      -13.1744241586  W2        1239            0.0000000000
      3717      1239  TIP3      H2              0.1996012922      -15.5830863765      -13.9228041586  W2        1239            0.0000000000
      3718      1240  TIP3      OH2             0.1128612922      -15.1249363765      -28.4770041586  W2        1240            0.0000000000
      3719      1240  TIP3      H1              0.5251212922      -15.8463663765      -28.9522041586  W2        1240            0.0000000000
      3720      1240  TIP3      H2              0.7945112922      -14.4554763765      -28.4185741586  W2        1240            0.0000000000
      3721      1241  TIP3      OH2           -17.6060687078      -15.1201663765      -25.3499341586  W2        1241            0.0000000000
      3722      1241  TIP3      H1            -18.5312287078      -14.9115063765      -25.4793841586  W2        1241            0.0000000000
      3723      1241  TIP3      H2            -17.1520787078      -14.6360863765      -26.0397041586  W2        1241            0.0000000000
      3724      1242  TIP3      OH2            -2.8353487078       -0.1359963765      -23.4041941586  W2        1242            0.0000000000
      3725      1242  TIP3      H1             -2.1830587078       -0.4837863765      -24.0122841586  W2        1242            0.0000000000
      3726      1242  TIP3      H2             -2.3249687078        0.3523236235      -22.7582241586  W2        1242            0.0000000000
      3727      1243  TIP3      OH2           -17.6425287078      -16.3822663765      -17.0056841586  W2        1243            0.0000000000
      3728      1243  TIP3      H1            -18.3074787078      -16.6282363765      -16.3625941586  W2        1243            0.0000000000
      3729      1243  TIP3      H2            -18.0853987078      -15.7602263765      -17.5828841586  W2        1243            0.0000000000
      3730      1244  TIP3      OH2           -15.4505987078       -3.2068563765      -12.8611041586  W2        1244            0.0000000000
      3731      1244  TIP3      H1            -16.2713487078       -3.0322063765      -13.3216341586  W2        1244            0.0000000000
      3732      1244  TIP3      H2            -15.7028187078       -3.2803863765      -11.9406641586  W2        1244            0.0000000000
      3733      1245  TIP3      OH2           -12.4963087078       -2.2327363765      -16.6027041586  W2        1245            0.0000000000
      3734      1245  TIP3      H1            -12.9211987078       -1.4228863765      -16.8852441586  W2        1245            0.0000000000
      3735      1245  TIP3      H2            -11.5920287078       -2.1473263765      -16.9047241586  W2        1245            0.0000000000
      3736      1246  TIP3      OH2            -8.1851687078       -0.8337363765      -13.6433341586  W2        1246            0.0000000000
      3737      1246  TIP3      H1             -8.0004187078       -1.1671263765      -12.7653041586  W2        1246            0.0000000000
      3738      1246  TIP3      H2             -7.3387187078       -0.5238763765      -13.9654141586  W2        1246            0.0000000000
      3739      1247  TIP3      OH2            -5.8401287078        0.4521536235      -14.3991941586  W2        1247            0.0000000000
      3740      1247  TIP3      H1             -5.1632387078       -0.1806163765      -14.6392741586  W2        1247            0.0000000000
      3741      1247  TIP3      H2             -5.5182487078        0.8532036235      -13.5918641586  W2        1247            0.0000000000
      3742      1248  TIP3      OH2            -0.9227487078      -16.9582963765      -15.3196941586  W2        1248            0.0000000000
      3743      1248  TIP3      H1             -1.7353987078      -16.6332663765      -15.7072241586  W2        1248            0.0000000000
      3744      1248  TIP3      H2             -0.6898987078      -17.7184463765      -15.8527841586  W2        1248            0.0000000000
      3745      1249  TIP3      OH2           -15.0946387078        1.0236536235      -16.5551741586  W2        1249            0.0000000000
      3746      1249  TIP3      H1            -15.8149987078        1.4637536235      -17.0064041586  W2        1249            0.0000000000
      3747      1249  TIP3      H2            -15.4602387078        0.7731236235      -15.7067741586  W2        1249            0.0000000000
      3748      1250  TIP3      OH2           -12.6273787078        0.6240436235      -17.5254541586  W2        1250            0.0000000000
      3749      1250  TIP3      H1            -13.4921587078        0.6958936235      -17.1214441586  W2        1250            0.0000000000
      3750      1250  TIP3      H2            -12.6824787078        1.1707736235      -18.3092041586  W2        1250            0.0000000000
      3751      1251  TIP3      OH2            -7.9168187078        0.5119336235      -18.3498541586  W2        1251            0.0000000000
      3752      1251  TIP3      H1             -8.3734187078        1.0409036235      -19.0040141586  W2        1251            0.0000000000
      3753      1251  TIP3      H2             -7.7540187078        1.1150736235      -17.6246241586  W2        1251            0.0000000000
      3754      1252  TIP3      OH2            -5.5891887078       -0.6101063765      -17.4048241586  W2        1252            0.0000000000
      3755      1252  TIP3      H1             -6.4938187078       -0.4450863765      -17.6706141586  W2        1252            0.0000000000
      3756      1252  TIP3      H2             -5.1603287078        0.2431136235      -17.4704841586  W2        1252            0.0000000000
      3757      1253  TIP3      OH2            -2.9849987078        0.9598036235      -17.1100441586  W2        1253            0.0000000000
      3758      1253  TIP3      H1             -3.1667987078        1.8756936235      -17.3205541586  W2        1253            0.0000000000
      3759      1253  TIP3      H2             -2.8082187078        0.5495136235      -17.9565841586  W2        1253            0.0000000000
      3760      1254  TIP3      OH2           -15.6798287078       -0.3530963765      -19.6449941586  W2        1254            0.0000000000
      3761      1254  TIP3      H1            -15.6982287078       -0.7785863765      -18.7877641586  W2        1254            0.0000000000
      3762      1254  TIP3      H2            -14.8750387078       -0.6715963765      -20.0537741586  W2        1254            0.0000000000
      3763      1255  TIP3      OH2           -13.5385187078       -1.6432263765      -20.9900041586  W2        1255            0.0000000000
      3764      1255  TIP3      H1            -13.7574487078       -2.5594863765      -20.8204041586  W2        1255            0.0000000000
      3765      1255  TIP3      H2            -12.7142987078       -1.5031863765      -20.5238641586  W2        1255            0.0000000000
      3766      1256  TIP3      OH2           -11.0012687078       -1.1732963765      -20.1412041586  W2        1256            0.0000000000
      3767      1256  TIP3      H1            -10.7886987078       -2.0613963765      -20.4281141586  W2        1256            0.0000000000
      3768      1256  TIP3      H2            -10.9367587078       -1.2075263765      -19.1868041586  W2        1256            0.0000000000
      3769      1257  TIP3      OH2            -7.4928987078      -15.5092363765      -20.9968741586  W2        1257            0.0000000000
      3770      1257  TIP3      H1             -8.1672187078      -16.1386763765      -20.7412941586  W2        1257            0.0000000000
      3771      1257  TIP3      H2             -6.9289787078      -15.9933463765      -21.6000841586  W2        1257            0.0000000000
      3772      1258  TIP3      OH2            -2.3501787078      -17.4018363765      -20.8841641586  W2        1258            0.0000000000
      3773      1258  TIP3      H1             -1.7464187078      -16.8542963765      -21.3860641586  W2        1258            0.0000000000
      3774      1258  TIP3      H2             -3.2199787078      -17.0827963765      -21.1247541586  W2        1258            0.0000000000
      3775      1259  TIP3      OH2            -0.6231387078      -16.2629663765      -22.5510741586  W2        1259            0.0000000000
      3776      1259  TIP3      H1             -0.0113887078      -16.7773963765      -23.0777141586  W2        1259            0.0000000000
      3777      1259  TIP3      H2             -0.2407987078      -15.3857563765      -22.5276341586  W2        1259            0.0000000000
      3778      1260  TIP3      OH2           -15.1661487078      -16.8752063765      -23.1748841586  W2        1260            0.0000000000
      3779      1260  TIP3      H1            -15.9431687078      -17.1097163765      -23.6822941586  W2        1260            0.0000000000
      3780      1260  TIP3      H2            -14.6357887078      -17.6719963765      -23.1660841586  W2        1260            0.0000000000
      3781      1261  TIP3      OH2           -16.3298087078      -17.0773963765      -27.3712741586  W2        1261            0.0000000000
      3782      1261  TIP3      H1            -15.8907387078      -16.4663463765      -27.9629241586  W2        1261            0.0000000000
      3783      1261  TIP3      H2            -16.9635687078      -16.5389863765      -26.8972741586  W2        1261            0.0000000000
      3784      1262  TIP3      OH2           -10.5868887078      -16.9484963765      -23.3615741586  W2        1262            0.0000000000
      3785      1262  TIP3      H1             -9.7125487078      -16.5600663765      -23.3911441586  W2        1262            0.0000000000
      3786      1262  TIP3      H2            -10.7228087078      -17.1637163765      -22.4388541586  W2        1262            0.0000000000
      3787      1263  TIP3      OH2            -5.0300487078      -16.9185163765      -21.7124041586  W2        1263            0.0000000000
      3788      1263  TIP3      H1             -4.9538887078      -16.8233563765      -22.6618041586  W2        1263            0.0000000000
      3789      1263  TIP3      H2             -5.3051287078      -17.8262263765      -21.5834941586  W2        1263            0.0000000000
      3790      1264  TIP3      OH2            -3.6767887078      -16.8927363765      -26.0199041586  W2        1264            0.0000000000
      3791      1264  TIP3      H1             -4.3796787078      -16.2778163765      -26.2297641586  W2        1264            0.0000000000
      3792      1264  TIP3      H2             -4.1216487078      -17.7300663765      -25.8888141586  W2        1264            0.0000000000
      3793      1265  TIP3      OH2           -16.4288587078       -1.1291763765      -26.4737641586  W2        1265            0.0000000000
      3794      1265  TIP3      H1            -17.1138687078       -1.1672863765      -27.1412541586  W2        1265            0.0000000000
      3795      1265  TIP3      H2            -16.4251387078       -0.2164163765      -26.1855541586  W2        1265            0.0000000000
      3796      1266  TIP3      OH2           -14.4688987078      -15.1612463765      -28.9288641586  W2        1266            0.0000000000
      3797      1266  TIP3      H1            -13.9775587078      -15.7910063765      -29.4563141586  W2        1266            0.0000000000
      3798      1266  TIP3      H2            -13.8452687078      -14.8653063765      -28.2657441586  W2        1266            0.0000000000
      3799      1267  TIP3      OH2            -9.4428887078      -14.8680963765      -26.4718141586  W2        1267            0.0000000000
      3800      1267  TIP3      H1             -9.2647587078      -15.5147763765      -25.7889541586  W2        1267            0.0000000000
      3801      1267  TIP3      H2             -9.4962687078      -14.0343263765      -26.0047041586  W2        1267            0.0000000000
      3802      1268  TIP3      OH2            -7.5645087078        0.0803136235      -28.0761441586  W2        1268            0.0000000000
      3803      1268  TIP3      H1             -6.6984887078        0.4470536235      -28.2543241586  W2        1268            0.0000000000
      3804      1268  TIP3      H2             -7.8112287078       -0.3588863765      -28.8900641586  W2        1268            0.0000000000
      3805      1269  TIP3      OH2            -0.8555487078       -0.3566563765      -25.3970341586  W2        1269            0.0000000000
      3806      1269  TIP3      H1             -1.0498387078       -1.1044463765      -25.9620741586  W2        1269            0.0000000000
      3807      1269  TIP3      H2             -0.8945387078        0.4013536235      -25.9802441586  W2        1269            0.0000000000
      3808      1270  TIP3      OH2           -15.2083487078      -16.3610163765      -13.6572641586  W2        1270            0.0000000000
      3809      1270  TIP3      H1            -15.5745287078      -17.1267563765      -13.2147941586  W2        1270            0.0000000000
      3810      1270  TIP3      H2            -14.2954987078      -16.3319963765      -13.3707541586  W2        1270            0.0000000000
      3811      1271  TIP3      OH2           -13.2352687078      -17.0105763765      -12.1215541586  W2        1271            0.0000000000
      3812      1271  TIP3      H1            -12.3369087078      -17.2845563765      -12.3062141586  W2        1271            0.0000000000
      3813      1271  TIP3      H2            -13.6219587078      -17.7529763765      -11.6572941586  W2        1271            0.0000000000
      3814      1272  TIP3      OH2           -14.6107387078       -0.2090963765      -29.4485541586  W2        1272            0.0000000000
      3815      1272  TIP3      H1            -14.8782787078        0.0771936235      -28.5752441586  W2        1272            0.0000000000
      3816      1272  TIP3      H2            -13.8394787078       -0.7551763765      -29.2963041586  W2        1272            0.0000000000
      3817      1273  TIP3      OH2            -4.8140387078      -17.6780463765      -11.9392741586  W2        1273            0.0000000000
      3818      1273  TIP3      H1             -4.7373187078      -18.1039763765      -11.0855041586  W2        1273            0.0000000000
      3819      1273  TIP3      H2             -3.9203787078      -17.6645763765      -12.2819241586  W2        1273            0.0000000000
      3820      1274  TIP3      OH2            -1.6379287078       -1.6054163765      -13.2468541586  W2        1274            0.0000000000
      3821      1274  TIP3      H1             -2.4197387078       -1.7916163765      -13.7667941586  W2        1274            0.0000000000
      3822      1274  TIP3      H2             -1.7099387078       -0.6759863765      -13.0296041586  W2        1274            0.0000000000
      3823      1275  TIP3      OH2            12.7681112922       -7.7189763765      -23.2161341586  W2        1275            0.0000000000
      3824      1275  TIP3      H1             12.8572212922       -6.7751563765      -23.3484241586  W2        1275            0.0000000000
      3825      1275  TIP3      H2             12.1298712922       -7.9943363765      -23.8741941586  W2        1275            0.0000000000
      3826      1276  TIP3      OH2            11.7012412922       -8.4639063765      -19.7973141586  W2        1276            0.0000000000
      3827      1276  TIP3      H1             11.6629912922       -9.1102763765      -19.0923541586  W2        1276            0.0000000000
      3828      1276  TIP3      H2             11.3788912922       -8.9304663765      -20.5684441586  W2        1276            0.0000000000
      3829      1277  TIP3      OH2             4.0697412922       -8.8496963765      -18.2043241586  W2        1277            0.0000000000
      3830      1277  TIP3      H1              4.1109512922       -9.4753663765      -17.4810841586  W2        1277            0.0000000000
      3831      1277  TIP3      H2              4.7725112922       -8.2258363765      -18.0222841586  W2        1277            0.0000000000
      3832      1278  TIP3      OH2            15.4072612922       -5.5248663765      -21.4958041586  W2        1278            0.0000000000
      3833      1278  TIP3      H1             14.9665312922       -6.2452663765      -21.0452441586  W2        1278            0.0000000000
      3834      1278  TIP3      H2             15.3942312922       -4.8041463765      -20.8660341586  W2        1278            0.0000000000
      3835      1279  TIP3      OH2             4.9930512922       -4.3998063765      -19.6694141586  W2        1279            0.0000000000
      3836      1279  TIP3      H1              4.6235712922       -5.2017563765      -20.0389841586  W2        1279            0.0000000000
      3837      1279  TIP3      H2              5.9341612922       -4.5683163765      -19.6230741586  W2        1279            0.0000000000
      3838      1280  TIP3      OH2             1.6031012922      -10.7395463765      -24.2765341586  W2        1280            0.0000000000
      3839      1280  TIP3      H1              1.1554412922       -9.8936763765      -24.2948841586  W2        1280            0.0000000000
      3840      1280  TIP3      H2              1.0422212922      -11.3191263765      -24.7920241586  W2        1280            0.0000000000
      3841      1281  TIP3      OH2             2.3137112922       -8.5775863765      -22.1507341586  W2        1281            0.0000000000
      3842      1281  TIP3      H1              2.5270612922       -9.3474263765      -21.6234341586  W2        1281            0.0000000000
      3843      1281  TIP3      H2              3.0514712922       -8.4879163765      -22.7539741586  W2        1281            0.0000000000
      3844      1282  TIP3      OH2            12.5188112922       -0.4206963765      -21.2837641586  W2        1282            0.0000000000
      3845      1282  TIP3      H1             13.1384512922       -1.0972263765      -21.5568441586  W2        1282            0.0000000000
      3846      1282  TIP3      H2             12.3105512922       -0.6386163765      -20.3752741586  W2        1282            0.0000000000
      3847      1283  TIP3      OH2            10.0906812922       -6.0317663765      -19.3912141586  W2        1283            0.0000000000
      3848      1283  TIP3      H1             10.3944712922       -6.7176263765      -19.9858041586  W2        1283            0.0000000000
      3849      1283  TIP3      H2             10.8120812922       -5.9128963765      -18.7734141586  W2        1283            0.0000000000
      3850      1284  TIP3      OH2            18.7536612922      -14.4302363765      -18.5305941586  W2        1284            0.0000000000
      3851      1284  TIP3      H1             18.8028812922      -13.8201163765      -17.7946841586  W2        1284            0.0000000000
      3852      1284  TIP3      H2             19.1791712922      -13.9691463765      -19.2534841586  W2        1284            0.0000000000
      3853      1285  TIP3      OH2            13.2313812922      -11.6375263765      -19.0637341586  W2        1285            0.0000000000
      3854      1285  TIP3      H1             13.3739712922      -12.5838263765      -19.0435741586  W2        1285            0.0000000000
      3855      1285  TIP3      H2             13.1252812922      -11.4305463765      -19.9922441586  W2        1285            0.0000000000
      3856      1286  TIP3      OH2             6.3862112922      -13.5358863765      -21.7912541586  W2        1286            0.0000000000
      3857      1286  TIP3      H1              6.4293212922      -12.6760363765      -22.2096241586  W2        1286            0.0000000000
      3858      1286  TIP3      H2              5.9286212922      -14.0884163765      -22.4249341586  W2        1286            0.0000000000
      3859      1287  TIP3      OH2            14.1084812922      -13.4053263765      -23.3904241586  W2        1287            0.0000000000
      3860      1287  TIP3      H1             14.7549112922      -13.7340063765      -22.7656641586  W2        1287            0.0000000000
      3861      1287  TIP3      H2             14.6184212922      -12.8874263765      -24.0132841586  W2        1287            0.0000000000
      3862      1288  TIP3      OH2             3.0063612922      -11.1393063765      -21.0291141586  W2        1288            0.0000000000
      3863      1288  TIP3      H1              3.6600212922      -11.6891363765      -20.5971041586  W2        1288            0.0000000000
      3864      1288  TIP3      H2              3.0302912922      -11.4134063765      -21.9459141586  W2        1288            0.0000000000
      3865      1289  TIP3      OH2             8.1628112922       -9.5891763765      -21.8139641586  W2        1289            0.0000000000
      3866      1289  TIP3      H1              8.7789112922      -10.1156363765      -21.3045641586  W2        1289            0.0000000000
      3867      1289  TIP3      H2              7.5766912922      -10.2293063765      -22.2176041586  W2        1289            0.0000000000
      3868      1290  TIP3      OH2            19.1451212922      -12.9523163765      -16.2946141586  W2        1290            0.0000000000
      3869      1290  TIP3      H1             18.4565812922      -12.2942463765      -16.3899541586  W2        1290            0.0000000000
      3870      1290  TIP3      H2             19.1605812922      -13.1495263765      -15.3580741586  W2        1290            0.0000000000
      3871      1291  TIP3      OH2             5.1964012922      -14.6180463765      -17.7171741586  W2        1291            0.0000000000
      3872      1291  TIP3      H1              4.9775712922      -14.0879863765      -18.4835741586  W2        1291            0.0000000000
      3873      1291  TIP3      H2              4.5284912922      -14.3914963765      -17.0700341586  W2        1291            0.0000000000
      3874      1292  TIP3      OH2            12.5653812922       -5.1179363765      -24.1732641586  W2        1292            0.0000000000
      3875      1292  TIP3      H1             12.2698912922       -5.4407063765      -25.0245741586  W2        1292            0.0000000000
      3876      1292  TIP3      H2             12.2411612922       -4.2182663765      -24.1320041586  W2        1292            0.0000000000
      3877      1293  TIP3      OH2             7.7655412922       -6.9424763765      -17.4298041586  W2        1293            0.0000000000
      3878      1293  TIP3      H1              7.0254512922       -6.3443263765      -17.3262841586  W2        1293            0.0000000000
      3879      1293  TIP3      H2              8.4794912922       -6.3885163765      -17.7454441586  W2        1293            0.0000000000
      3880      1294  TIP3      OH2            15.8723212922      -14.1143963765      -21.4098341586  W2        1294            0.0000000000
      3881      1294  TIP3      H1             15.6571212922      -14.8800563765      -20.8772341586  W2        1294            0.0000000000
      3882      1294  TIP3      H2             16.5280612922      -13.6419363765      -20.8969841586  W2        1294            0.0000000000
      3883      1295  TIP3      OH2             4.7901312922      -12.7258663765      -19.7649541586  W2        1295            0.0000000000
      3884      1295  TIP3      H1              5.4037612922      -12.0931063765      -19.3917141586  W2        1295            0.0000000000
      3885      1295  TIP3      H2              5.3022012922      -13.1983663765      -20.4212641586  W2        1295            0.0000000000
      3886      1296  TIP3      OH2             6.1729712922       -4.9781763765      -16.6426541586  W2        1296            0.0000000000
      3887      1296  TIP3      H1              6.1677312922       -4.0988263765      -17.0207241586  W2        1296            0.0000000000
      3888      1296  TIP3      H2              5.3193812922       -5.0617663765      -16.2176641586  W2        1296            0.0000000000
      3889      1297  TIP3      OH2             2.2940612922       -5.3073863765      -25.8607241586  W2        1297            0.0000000000
      3890      1297  TIP3      H1              2.0221512922       -5.0782863765      -26.7494341586  W2        1297            0.0000000000
      3891      1297  TIP3      H2              2.3396312922       -4.4695063765      -25.4001941586  W2        1297            0.0000000000
      3892      1298  TIP3      OH2            15.9190312922       -3.6857963765      -19.1478741586  W2        1298            0.0000000000
      3893      1298  TIP3      H1             14.9774012922       -3.6274063765      -18.9861841586  W2        1298            0.0000000000
      3894      1298  TIP3      H2             16.1956412922       -2.7797463765      -19.2849041586  W2        1298            0.0000000000
      3895      1299  TIP3      OH2            16.2197312922      -15.3992663765      -17.7304841586  W2        1299            0.0000000000
      3896      1299  TIP3      H1             15.4836512922      -14.7885563765      -17.7683541586  W2        1299            0.0000000000
      3897      1299  TIP3      H2             16.9031312922      -14.9843663765      -18.2568441586  W2        1299            0.0000000000
      3898      1300  TIP3      OH2             9.2228712922      -17.3125363765      -20.2646841586  W2        1300            0.0000000000
      3899      1300  TIP3      H1              9.1052912922      -18.2609363765      -20.3188541586  W2        1300            0.0000000000
      3900      1300  TIP3      H2              8.3678812922      -16.9799263765      -19.9915741586  W2        1300            0.0000000000
      3901      1301  TIP3      OH2            14.1711512922       -1.9044463765      -22.5227141586  W2        1301            0.0000000000
      3902      1301  TIP3      H1             14.5963812922       -2.6116563765      -23.0077541586  W2        1301            0.0000000000
      3903      1301  TIP3      H2             14.4881512922       -1.1031763765      -22.9394941586  W2        1301            0.0000000000
      3904      1302  TIP3      OH2            15.3308012922       -4.0035963765      -24.0140541586  W2        1302            0.0000000000
      3905      1302  TIP3      H1             15.0732812922       -4.6935863765      -24.6254641586  W2        1302            0.0000000000
      3906      1302  TIP3      H2             15.4018812922       -4.4464763765      -23.1684641586  W2        1302            0.0000000000
      3907      1303  TIP3      OH2            17.0168212922       -5.4369263765      -15.5367041586  W2        1303            0.0000000000
      3908      1303  TIP3      H1             17.1564512922       -6.0286763765      -16.2760041586  W2        1303            0.0000000000
      3909      1303  TIP3      H2             17.1841012922       -4.5643363765      -15.8928241586  W2        1303            0.0000000000
      3910      1304  TIP3      OH2            11.4893612922       -8.4749763765      -25.7641041586  W2        1304            0.0000000000
      3911      1304  TIP3      H1             10.7779112922       -7.9400063765      -26.1160541586  W2        1304            0.0000000000
      3912      1304  TIP3      H2             12.1803212922       -8.4197663765      -26.4242141586  W2        1304            0.0000000000
      3913      1305  TIP3      OH2            11.5432812922      -10.0175463765      -28.7256041586  W2        1305            0.0000000000
      3914      1305  TIP3      H1             12.2442712922       -9.9948563765      -28.0742041586  W2        1305            0.0000000000
      3915      1305  TIP3      H2             11.8455712922      -10.6455763765      -29.3816741586  W2        1305            0.0000000000
      3916      1306  TIP3      OH2            18.8587512922       -9.0971263765      -17.4706641586  W2        1306            0.0000000000
      3917      1306  TIP3      H1             18.2061612922       -8.4025663765      -17.3815741586  W2        1306            0.0000000000
      3918      1306  TIP3      H2             19.3237812922       -8.8870363765      -18.2805041586  W2        1306            0.0000000000
      3919      1307  TIP3      OH2            14.8951312922       -8.2656463765      -24.8125141586  W2        1307            0.0000000000
      3920      1307  TIP3      H1             14.1632312922       -8.0372763765      -24.2394541586  W2        1307            0.0000000000
      3921      1307  TIP3      H2             15.3423512922       -8.9793763765      -24.3577641586  W2        1307            0.0000000000
      3922      1308  TIP3      OH2            14.7924812922      -10.0913863765      -15.7448141586  W2        1308            0.0000000000
      3923      1308  TIP3      H1             14.8723912922       -9.3279463765      -15.1729641586  W2        1308            0.0000000000
      3924      1308  TIP3      H2             14.1912512922       -9.8121463765      -16.4353041586  W2        1308            0.0000000000
      3925      1309  TIP3      OH2             6.5405012922       -7.6350263765      -22.9300141586  W2        1309            0.0000000000
      3926      1309  TIP3      H1              6.2100212922       -8.0056863765      -23.7483141586  W2        1309            0.0000000000
      3927      1309  TIP3      H2              7.1289112922       -8.3056263765      -22.5831841586  W2        1309            0.0000000000
      3928      1310  TIP3      OH2             7.9072512922       -4.2069663765      -20.2487941586  W2        1310            0.0000000000
      3929      1310  TIP3      H1              7.8123812922       -4.7856563765      -21.0053341586  W2        1310            0.0000000000
      3930      1310  TIP3      H2              8.6366112922       -4.5783963765      -19.7525141586  W2        1310            0.0000000000
      3931      1311  TIP3      OH2             6.9070512922       -8.8664663765      -19.2965141586  W2        1311            0.0000000000
      3932      1311  TIP3      H1              7.4723012922       -8.7450463765      -20.0593941586  W2        1311            0.0000000000
      3933      1311  TIP3      H2              7.2259412922       -8.2289663765      -18.6576641586  W2        1311            0.0000000000
      3934      1312  TIP3      OH2            13.2162712922       -3.3632763765      -18.5624641586  W2        1312            0.0000000000
      3935      1312  TIP3      H1             12.9759312922       -2.7009663765      -17.9145441586  W2        1312            0.0000000000
      3936      1312  TIP3      H2             13.0180912922       -4.1977563765      -18.1375041586  W2        1312            0.0000000000
      3937      1313  TIP3      OH2             7.7871212922       -4.4671963765      -14.5793241586  W2        1313            0.0000000000
      3938      1313  TIP3      H1              7.4758712922       -3.6848763765      -14.1240041586  W2        1313            0.0000000000
      3939      1313  TIP3      H2              7.1371412922       -4.6202863765      -15.2651241586  W2        1313            0.0000000000
      3940      1314  TIP3      OH2            13.7660812922       -9.1033563765      -27.1273941586  W2        1314            0.0000000000
      3941      1314  TIP3      H1             14.3456312922       -8.9533263765      -26.3805041586  W2        1314            0.0000000000
      3942      1314  TIP3      H2             14.1800812922       -8.6326163765      -27.8507541586  W2        1314            0.0000000000
      3943      1315  TIP3      OH2             4.7071112922       -8.2690863765      -15.3507541586  W2        1315            0.0000000000
      3944      1315  TIP3      H1              4.7774312922       -7.6184063765      -14.6522541586  W2        1315            0.0000000000
      3945      1315  TIP3      H2              3.8163312922       -8.1663363765      -15.6856641586  W2        1315            0.0000000000
      3946      1316  TIP3      OH2            11.4925712922       -2.3665063765      -23.6920841586  W2        1316            0.0000000000
      3947      1316  TIP3      H1             11.9663312922       -2.0708763765      -22.9146641586  W2        1316            0.0000000000
      3948      1316  TIP3      H2             10.9295012922       -1.6283463765      -23.9251241586  W2        1316            0.0000000000
      3949      1317  TIP3      OH2             6.0267112922       -2.3956963765      -13.8159441586  W2        1317            0.0000000000
      3950      1317  TIP3      H1              6.0342412922       -2.5317263765      -14.7633941586  W2        1317            0.0000000000
      3951      1317  TIP3      H2              5.1107512922       -2.5128863765      -13.5639441586  W2        1317            0.0000000000
      3952      1318  TIP3      OH2            17.4649212922      -17.3533163765      -27.3144241586  W2        1318            0.0000000000
      3953      1318  TIP3      H1             16.5649912922      -17.2144163765      -27.0193641586  W2        1318            0.0000000000
      3954      1318  TIP3      H2             17.7167612922      -16.5218563765      -27.7162541586  W2        1318            0.0000000000
      3955      1319  TIP3      OH2             5.5307712922       -8.5655963765      -25.3407341586  W2        1319            0.0000000000
      3956      1319  TIP3      H1              5.2389012922       -7.7974263765      -25.8316041586  W2        1319            0.0000000000
      3957      1319  TIP3      H2              4.8562912922       -9.2249763765      -25.5035941586  W2        1319            0.0000000000
      3958      1320  TIP3      OH2            18.6540612922       -2.9870763765      -28.9380341586  W2        1320            0.0000000000
      3959      1320  TIP3      H1             18.7274112922       -2.0480563765      -28.7675041586  W2        1320            0.0000000000
      3960      1320  TIP3      H2             19.5595712922       -3.2922163765      -28.9943041586  W2        1320            0.0000000000
      3961      1321  TIP3      OH2             1.6237812922       -6.2026763765      -16.5257541586  W2        1321            0.0000000000
      3962      1321  TIP3      H1              1.1226212922       -6.2307363765      -17.3407841586  W2        1321            0.0000000000
      3963      1321  TIP3      H2              1.6291512922       -7.1083563765      -16.2160241586  W2        1321            0.0000000000
      3964      1322  TIP3      OH2             1.3740512922       -3.4222963765      -19.6417341586  W2        1322            0.0000000000
      3965      1322  TIP3      H1              2.3201112922       -3.5665963765      -19.6607841586  W2        1322            0.0000000000
      3966      1322  TIP3      H2              1.2616812922       -2.6380163765      -19.1046141586  W2        1322            0.0000000000
      3967      1323  TIP3      OH2            19.5719012922       -2.7563263765      -13.9593641586  W2        1323            0.0000000000
      3968      1323  TIP3      H1             19.5225812922       -3.7115163765      -13.9966041586  W2        1323            0.0000000000
      3969      1323  TIP3      H2             18.7451312922       -2.4887963765      -13.5579841586  W2        1323            0.0000000000
      3970      1324  TIP3      OH2            10.5503012922       -3.1824063765      -15.0832241586  W2        1324            0.0000000000
      3971      1324  TIP3      H1             10.6377612922       -2.3559463765      -14.6083141586  W2        1324            0.0000000000
      3972      1324  TIP3      H2              9.6868112922       -3.5120263765      -14.8342941586  W2        1324            0.0000000000
      3973      1325  TIP3      OH2            10.9648812922        0.5899636235      -25.2771641586  W2        1325            0.0000000000
      3974      1325  TIP3      H1             10.8894812922        0.4686836235      -26.2236441586  W2        1325            0.0000000000
      3975      1325  TIP3      H2             10.9977512922        1.5392336235      -25.1587041586  W2        1325            0.0000000000
      3976      1326  TIP3      OH2             4.6182612922       -0.6213363765      -23.4962641586  W2        1326            0.0000000000
      3977      1326  TIP3      H1              4.7703012922       -0.9692963765      -22.6176141586  W2        1326            0.0000000000
      3978      1326  TIP3      H2              3.7673012922       -0.9776063765      -23.7515441586  W2        1326            0.0000000000
      3979      1327  TIP3      OH2            14.0664812922       -0.2560163765      -28.2749241586  W2        1327            0.0000000000
      3980      1327  TIP3      H1             14.4413212922       -1.0004063765      -28.7456641586  W2        1327            0.0000000000
      3981      1327  TIP3      H2             14.0708512922       -0.5259563765      -27.3565941586  W2        1327            0.0000000000
      3982      1328  TIP3      OH2            13.7352912922       -0.3303063765      -25.5257041586  W2        1328            0.0000000000
      3983      1328  TIP3      H1             12.8002712922       -0.2301163765      -25.3470041586  W2        1328            0.0000000000
      3984      1328  TIP3      H2             14.0154812922       -1.0397063765      -24.9473841586  W2        1328            0.0000000000
      3985      1329  TIP3      OH2            16.7238812922      -11.2630763765      -13.4791441586  W2        1329            0.0000000000
      3986      1329  TIP3      H1             16.3165612922      -10.7825163765      -14.1998141586  W2        1329            0.0000000000
      3987      1329  TIP3      H2             16.7644512922      -12.1684763765      -13.7870641586  W2        1329            0.0000000000
      3988      1330  TIP3      OH2             3.8728312922       -4.8791363765      -15.4824741586  W2        1330            0.0000000000
      3989      1330  TIP3      H1              4.0889612922       -5.2405763765      -14.6228941586  W2        1330            0.0000000000
      3990      1330  TIP3      H2              3.0173012922       -5.2537563765      -15.6921241586  W2        1330            0.0000000000
      3991      1331  TIP3      OH2             6.4916312922      -16.4090863765      -19.4870541586  W2        1331            0.0000000000
      3992      1331  TIP3      H1              5.6300012922      -16.4962663765      -19.8947641586  W2        1331            0.0000000000
      3993      1331  TIP3      H2              6.4692012922      -15.5530763765      -19.0592941586  W2        1331            0.0000000000
      3994      1332  TIP3      OH2            11.1544112922      -16.6870463765      -16.1123541586  W2        1332            0.0000000000
      3995      1332  TIP3      H1             11.5747212922      -17.1023363765      -15.3592941586  W2        1332            0.0000000000
      3996      1332  TIP3      H2             10.2213712922      -16.8657163765      -15.9951541586  W2        1332            0.0000000000
      3997      1333  TIP3      OH2            14.4809012922      -12.9315263765      -15.2589041586  W2        1333            0.0000000000
      3998      1333  TIP3      H1             13.9668512922      -13.0573063765      -14.4613041586  W2        1333            0.0000000000
      3999      1333  TIP3      H2             14.3253712922      -12.0192163765      -15.5032841586  W2        1333            0.0000000000
      4000      1334  TIP3      OH2            15.2433912922       -8.0705263765      -29.4976041586  W2        1334            0.0000000000
      4001      1334  TIP3      H1             15.2854712922       -8.2931363765      -30.4276041586  W2        1334            0.0000000000
      4002      1334  TIP3      H2             16.0926012922       -7.6718163765      -29.3076141586  W2        1334            0.0000000000
      4003      1335  TIP3      OH2            10.8161412922      -14.1947063765      -28.8272741586  W2        1335            0.0000000000
      4004      1335  TIP3      H1             10.5626212922      -14.1755463765      -27.9044641586  W2        1335            0.0000000000
      4005      1335  TIP3      H2             10.5593512922      -15.0661663765      -29.1286541586  W2        1335            0.0000000000
      4006      1336  TIP3      OH2             6.5826412922      -11.4436363765      -18.3920341586  W2        1336            0.0000000000
      4007      1336  TIP3      H1              5.9408512922      -11.4839063765      -17.6830241586  W2        1336            0.0000000000
      4008      1336  TIP3      H2              6.6198412922      -10.5171663765      -18.6297341586  W2        1336            0.0000000000
      4009      1337  TIP3      OH2             6.5795512922      -11.2226263765      -23.4800341586  W2        1337            0.0000000000
      4010      1337  TIP3      H1              5.6868412922      -11.5630163765      -23.5386541586  W2        1337            0.0000000000
      4011      1337  TIP3      H2              7.0302112922      -11.5995363765      -24.2357141586  W2        1337            0.0000000000
      4012      1338  TIP3      OH2            12.1151012922      -10.8065963765      -24.6629541586  W2        1338            0.0000000000
      4013      1338  TIP3      H1             11.7061312922       -9.9917363765      -24.9544741586  W2        1338            0.0000000000
      4014      1338  TIP3      H2             12.8357212922      -10.9465863765      -25.2772441586  W2        1338            0.0000000000
      4015      1339  TIP3      OH2            11.2172612922      -10.6309563765      -13.1748841586  W2        1339            0.0000000000
      4016      1339  TIP3      H1             10.6546412922      -11.3357963765      -12.8541041586  W2        1339            0.0000000000
      4017      1339  TIP3      H2             12.0436012922      -10.7517663765      -12.7071241586  W2        1339            0.0000000000
      4018      1340  TIP3      OH2            13.1198712922      -11.3605563765      -21.8489841586  W2        1340            0.0000000000
      4019      1340  TIP3      H1             12.9243212922      -10.7548763765      -22.5639241586  W2        1340            0.0000000000
      4020      1340  TIP3      H2             13.3011312922      -12.1940363765      -22.2833541586  W2        1340            0.0000000000
      4021      1341  TIP3      OH2             4.3326912922      -11.1232863765      -16.5248341586  W2        1341            0.0000000000
      4022      1341  TIP3      H1              4.2946312922      -10.7231263765      -15.6561241586  W2        1341            0.0000000000
      4023      1341  TIP3      H2              3.8418012922      -11.9400463765      -16.4345441586  W2        1341            0.0000000000
      4024      1342  TIP3      OH2             7.6984312922      -13.7490563765      -29.7262341586  W2        1342            0.0000000000
      4025      1342  TIP3      H1              7.2675012922      -14.1940463765      -28.9964941586  W2        1342            0.0000000000
      4026      1342  TIP3      H2              6.9803012922      -13.3774263765      -30.2384841586  W2        1342            0.0000000000
      4027      1343  TIP3      OH2             0.9407712922      -14.0071063765      -22.6743641586  W2        1343            0.0000000000
      4028      1343  TIP3      H1              1.5715412922      -14.0358963765      -21.9549741586  W2        1343            0.0000000000
      4029      1343  TIP3      H2              1.3902012922      -14.4322363765      -23.4047741586  W2        1343            0.0000000000
      4030      1344  TIP3      OH2             2.2149812922      -13.2609063765      -27.2503241586  W2        1344            0.0000000000
      4031      1344  TIP3      H1              2.6891512922      -12.6699163765      -27.8352341586  W2        1344            0.0000000000
      4032      1344  TIP3      H2              1.4976212922      -12.7306163765      -26.9033141586  W2        1344            0.0000000000
      4033      1345  TIP3      OH2            12.3837912922       -9.7224263765      -17.1777441586  W2        1345            0.0000000000
      4034      1345  TIP3      H1             12.7072712922      -10.3534563765      -17.8206941586  W2        1345            0.0000000000
      4035      1345  TIP3      H2             11.9437212922      -10.2572063765      -16.5170041586  W2        1345            0.0000000000
      4036      1346  TIP3      OH2             9.1610812922      -13.7948763765      -22.3936241586  W2        1346            0.0000000000
      4037      1346  TIP3      H1              8.2501912922      -13.7381963765      -22.1050241586  W2        1346            0.0000000000
      4038      1346  TIP3      H2              9.6663712922      -13.8553263765      -21.5829041586  W2        1346            0.0000000000
      4039      1347  TIP3      OH2             3.9894212922      -12.1662463765      -23.5668641586  W2        1347            0.0000000000
      4040      1347  TIP3      H1              3.1002212922      -12.0666963765      -23.9069041586  W2        1347            0.0000000000
      4041      1347  TIP3      H2              4.2859112922      -13.0079463765      -23.9130741586  W2        1347            0.0000000000
      4042      1348  TIP3      OH2             7.6426012922      -12.1659863765      -25.9104041586  W2        1348            0.0000000000
      4043      1348  TIP3      H1              8.5741512922      -12.0369863765      -25.7320941586  W2        1348            0.0000000000
      4044      1348  TIP3      H2              7.4276312922      -11.4965563765      -26.5599341586  W2        1348            0.0000000000
      4045      1349  TIP3      OH2            13.5662712922      -14.5602463765      -19.1294441586  W2        1349            0.0000000000
      4046      1349  TIP3      H1             12.8894312922      -14.4289363765      -18.4654741586  W2        1349            0.0000000000
      4047      1349  TIP3      H2             13.0807612922      -14.7152963765      -19.9396741586  W2        1349            0.0000000000
      4048      1350  TIP3      OH2             6.3166212922      -10.9717663765      -28.3437941586  W2        1350            0.0000000000
      4049      1350  TIP3      H1              5.7741312922      -11.3513863765      -29.0350341586  W2        1350            0.0000000000
      4050      1350  TIP3      H2              7.1501112922      -10.7772963765      -28.7723841586  W2        1350            0.0000000000
      4051      1351  TIP3      OH2            16.8537812922        1.1112936235      -12.8526841586  W2        1351            0.0000000000
      4052      1351  TIP3      H1             17.0536512922        1.5354836235      -13.6871541586  W2        1351            0.0000000000
      4053      1351  TIP3      H2             17.5091512922        1.4551136235      -12.2456441586  W2        1351            0.0000000000
      4054      1352  TIP3      OH2             4.4517612922       -6.4145763765      -13.2446341586  W2        1352            0.0000000000
      4055      1352  TIP3      H1              5.1840012922       -6.1599863765      -12.6831841586  W2        1352            0.0000000000
      4056      1352  TIP3      H2              3.6716312922       -6.2100363765      -12.7290941586  W2        1352            0.0000000000
      4057      1353  TIP3      OH2            10.4810512922      -11.0075763765      -20.5066641586  W2        1353            0.0000000000
      4058      1353  TIP3      H1             11.0453912922      -11.5539163765      -21.0537041586  W2        1353            0.0000000000
      4059      1353  TIP3      H2             10.3333912922      -11.5293863765      -19.7179041586  W2        1353            0.0000000000
      4060      1354  TIP3      OH2             5.4830212922      -14.8709663765      -24.0881841586  W2        1354            0.0000000000
      4061      1354  TIP3      H1              5.1659712922      -15.7734363765      -24.1236441586  W2        1354            0.0000000000
      4062      1354  TIP3      H2              6.2644312922      -14.8692263765      -24.6410241586  W2        1354            0.0000000000
      4063      1355  TIP3      OH2             9.1076412922      -12.6189663765      -18.0926241586  W2        1355            0.0000000000
      4064      1355  TIP3      H1              8.2721712922      -12.1650163765      -17.9823841586  W2        1355            0.0000000000
      4065      1355  TIP3      H2              9.6317012922      -12.3431163765      -17.3406341586  W2        1355            0.0000000000
      4066      1356  TIP3      OH2             9.6519012922       -6.4061963765      -26.4079841586  W2        1356            0.0000000000
      4067      1356  TIP3      H1              8.9070012922       -6.9136663765      -26.7301941586  W2        1356            0.0000000000
      4068      1356  TIP3      H2              9.5176212922       -6.3573963765      -25.4615041586  W2        1356            0.0000000000
      4069      1357  TIP3      OH2            16.8017912922       -7.2733763765      -17.6212241586  W2        1357            0.0000000000
      4070      1357  TIP3      H1             17.4436712922       -6.8167463765      -18.1650041586  W2        1357            0.0000000000
      4071      1357  TIP3      H2             15.9714812922       -7.1601363765      -18.0838141586  W2        1357            0.0000000000
      4072      1358  TIP3      OH2            13.5495812922      -13.5922063765      -28.2087241586  W2        1358            0.0000000000
      4073      1358  TIP3      H1             12.6110012922      -13.4806463765      -28.3598441586  W2        1358            0.0000000000
      4074      1358  TIP3      H2             13.8467912922      -12.7355163765      -27.9021541586  W2        1358            0.0000000000
      4075      1359  TIP3      OH2            11.1711112922       -6.2218663765      -15.1710741586  W2        1359            0.0000000000
      4076      1359  TIP3      H1             10.8257212922       -6.6036263765      -14.3641141586  W2        1359            0.0000000000
      4077      1359  TIP3      H2             10.9711212922       -5.2885063765      -15.0997841586  W2        1359            0.0000000000
      4078      1360  TIP3      OH2            14.2679312922      -11.7249363765      -26.5479841586  W2        1360            0.0000000000
      4079      1360  TIP3      H1             15.1598312922      -11.8624363765      -26.2288641586  W2        1360            0.0000000000
      4080      1360  TIP3      H2             14.3242912922      -10.9343263765      -27.0846341586  W2        1360            0.0000000000
      4081      1361  TIP3      OH2             4.7767312922       -7.1111963765      -20.6381941586  W2        1361            0.0000000000
      4082      1361  TIP3      H1              5.5214512922       -7.1136263765      -21.2395441586  W2        1361            0.0000000000
      4083      1361  TIP3      H2              4.8543912922       -7.9348163765      -20.1566841586  W2        1361            0.0000000000
      4084      1362  TIP3      OH2            11.7773112922       -4.9477663765      -27.3825241586  W2        1362            0.0000000000
      4085      1362  TIP3      H1             11.4821512922       -4.1209763765      -27.0010441586  W2        1362            0.0000000000
      4086      1362  TIP3      H2             11.0743112922       -5.5670763765      -27.1863841586  W2        1362            0.0000000000
      4087      1363  TIP3      OH2             1.7847012922       -8.6505063765      -15.3233441586  W2        1363            0.0000000000
      4088      1363  TIP3      H1              2.0075612922       -9.0685463765      -14.4915941586  W2        1363            0.0000000000
      4089      1363  TIP3      H2              1.1827112922       -9.2630063765      -15.7460641586  W2        1363            0.0000000000
      4090      1364  TIP3      OH2             8.8011912922       -9.1335163765      -13.1103741586  W2        1364            0.0000000000
      4091      1364  TIP3      H1              8.5052712922       -9.2992163765      -14.0054641586  W2        1364            0.0000000000
      4092      1364  TIP3      H2              9.7327112922       -9.3534863765      -13.1209841586  W2        1364            0.0000000000
      4093      1365  TIP3      OH2            13.4214712922       -3.7603163765      -15.2205741586  W2        1365            0.0000000000
      4094      1365  TIP3      H1             12.5209012922       -3.5770563765      -15.4881841586  W2        1365            0.0000000000
      4095      1365  TIP3      H2             13.4555812922       -3.5013863765      -14.2996941586  W2        1365            0.0000000000
      4096      1366  TIP3      OH2            19.1528012922      -11.5155263765      -26.8533141586  W2        1366            0.0000000000
      4097      1366  TIP3      H1             18.5984312922      -11.9117263765      -27.5255641586  W2        1366            0.0000000000
      4098      1366  TIP3      H2             19.2531612922      -10.6050063765      -27.1309841586  W2        1366            0.0000000000
      4099      1367  TIP3      OH2            19.1160012922       -5.7153563765      -14.0161641586  W2        1367            0.0000000000
      4100      1367  TIP3      H1             18.2648512922       -5.4769763765      -14.3835241586  W2        1367            0.0000000000
      4101      1367  TIP3      H2             19.7063412922       -5.7320363765      -14.7694541586  W2        1367            0.0000000000
      4102      1368  TIP3      OH2            17.4479712922       -2.7294863765      -26.3881041586  W2        1368            0.0000000000
      4103      1368  TIP3      H1             17.0750812922       -3.5551063765      -26.0790441586  W2        1368            0.0000000000
      4104      1368  TIP3      H2             17.7253212922       -2.9125463765      -27.2857641586  W2        1368            0.0000000000
      4105      1369  TIP3      OH2            14.6083612922       -7.9215363765      -19.3669141586  W2        1369            0.0000000000
      4106      1369  TIP3      H1             13.6800512922       -8.1533463765      -19.3939841586  W2        1369            0.0000000000
      4107      1369  TIP3      H2             15.0594712922       -8.6985563765      -19.6970341586  W2        1369            0.0000000000
      4108      1370  TIP3      OH2             7.1516712922       -3.5933763765      -23.2340441586  W2        1370            0.0000000000
      4109      1370  TIP3      H1              7.6788912922       -2.8199363765      -23.4341641586  W2        1370            0.0000000000
      4110      1370  TIP3      H2              6.2715212922       -3.3684563765      -23.5356441586  W2        1370            0.0000000000
      4111      1371  TIP3      OH2             2.9064412922       -8.7309663765      -28.6468041586  W2        1371            0.0000000000
      4112      1371  TIP3      H1              3.5224312922       -8.1042463765      -28.2673241586  W2        1371            0.0000000000
      4113      1371  TIP3      H2              2.0447012922       -8.4149863765      -28.3751541586  W2        1371            0.0000000000
      4114      1372  TIP3      OH2             8.5789012922       -5.9303863765      -23.6576141586  W2        1372            0.0000000000
      4115      1372  TIP3      H1              8.3379012922       -5.0049463765      -23.6160841586  W2        1372            0.0000000000
      4116      1372  TIP3      H2              7.8382612922       -6.3892563765      -23.2612241586  W2        1372            0.0000000000
      4117      1373  TIP3      OH2             9.0935612922       -1.7810263765      -17.3425041586  W2        1373            0.0000000000
      4118      1373  TIP3      H1              9.4560312922       -0.9264663765      -17.5760641586  W2        1373            0.0000000000
      4119      1373  TIP3      H2              9.6250812922       -2.0728663765      -16.6018741586  W2        1373            0.0000000000
      4120      1374  TIP3      OH2             7.2619812922       -0.9086263765      -24.1123941586  W2        1374            0.0000000000
      4121      1374  TIP3      H1              6.3120312922       -0.8028863765      -24.0610641586  W2        1374            0.0000000000
      4122      1374  TIP3      H2              7.6137912922       -0.0878863765      -23.7676441586  W2        1374            0.0000000000
      4123      1375  TIP3      OH2            12.6376412922       -5.6819563765      -17.6419441586  W2        1375            0.0000000000
      4124      1375  TIP3      H1             12.2117712922       -5.9097863765      -16.8155441586  W2        1375            0.0000000000
      4125      1375  TIP3      H2             13.2182212922       -6.4207763765      -17.8244141586  W2        1375            0.0000000000
      4126      1376  TIP3      OH2            14.8405312922       -4.7529063765      -28.5680441586  W2        1376            0.0000000000
      4127      1376  TIP3      H1             15.1938412922       -5.1329263765      -27.7636941586  W2        1376            0.0000000000
      4128      1376  TIP3      H2             13.8918812922       -4.8464263765      -28.4811141586  W2        1376            0.0000000000
      4129      1377  TIP3      OH2            15.2960612922       -1.1300063765      -15.1724641586  W2        1377            0.0000000000
      4130      1377  TIP3      H1             14.6943812922       -1.6857163765      -15.6678341586  W2        1377            0.0000000000
      4131      1377  TIP3      H2             15.5774312922       -0.4630263765      -15.7987241586  W2        1377            0.0000000000
      4132      1378  TIP3      OH2            19.3439712922       -0.2736563765      -28.3670241586  W2        1378            0.0000000000
      4133      1378  TIP3      H1             20.0877612922        0.3123936235      -28.5068641586  W2        1378            0.0000000000
      4134      1378  TIP3      H2             18.6497812922        0.2949236235      -28.0337841586  W2        1378            0.0000000000
      4135      1379  TIP3      OH2             3.4186512922      -13.8972363765      -15.7652041586  W2        1379            0.0000000000
      4136      1379  TIP3      H1              2.5258812922      -13.5586963765      -15.8328041586  W2        1379            0.0000000000
      4137      1379  TIP3      H2              3.3199312922      -14.7526263765      -15.3471241586  W2        1379            0.0000000000
      4138      1380  TIP3      OH2            15.7064612922       -6.0807063765      -26.3412541586  W2        1380            0.0000000000
      4139      1380  TIP3      H1             15.4292212922       -6.8087763765      -25.7851441586  W2        1380            0.0000000000
      4140      1380  TIP3      H2             16.6337612922       -5.9615063765      -26.1359941586  W2        1380            0.0000000000
      4141      1381  TIP3      OH2             3.0698512922       -2.0927963765      -17.3302641586  W2        1381            0.0000000000
      4142      1381  TIP3      H1              3.2868812922       -3.0245563765      -17.3612941586  W2        1381            0.0000000000
      4143      1381  TIP3      H2              3.3162012922       -1.8182963765      -16.4469841586  W2        1381            0.0000000000
      4144      1382  TIP3      OH2             8.9313112922       -3.6412963765      -30.1210441586  W2        1382            0.0000000000
      4145      1382  TIP3      H1              9.1702912922       -4.3894863765      -30.6681541586  W2        1382            0.0000000000
      4146      1382  TIP3      H2              8.6624412922       -4.0291263765      -29.2882641586  W2        1382            0.0000000000
      4147      1383  TIP3      OH2             7.8683712922       -4.0709163765      -27.6647841586  W2        1383            0.0000000000
      4148      1383  TIP3      H1              8.0151712922       -4.5909363765      -26.8746941586  W2        1383            0.0000000000
      4149      1383  TIP3      H2              7.8655412922       -3.1641563765      -27.3581941586  W2        1383            0.0000000000
      4150      1384  TIP3      OH2             4.3214812922       -6.8185863765      -27.1542441586  W2        1384            0.0000000000
      4151      1384  TIP3      H1              3.6354112922       -6.4663363765      -26.5872741586  W2        1384            0.0000000000
      4152      1384  TIP3      H2              4.8442712922       -6.0556263765      -27.4008141586  W2        1384            0.0000000000
      4153      1385  TIP3      OH2            12.1529912922      -14.1562063765      -16.8753441586  W2        1385            0.0000000000
      4154      1385  TIP3      H1             12.8517812922      -14.0823363765      -16.2253741586  W2        1385            0.0000000000
      4155      1385  TIP3      H2             11.7721312922      -15.0207063765      -16.7210541586  W2        1385            0.0000000000
      4156      1386  TIP3      OH2            12.9374812922      -14.5040363765      -25.7781141586  W2        1386            0.0000000000
      4157      1386  TIP3      H1             13.1573112922      -14.0324963765      -26.5815741586  W2        1386            0.0000000000
      4158      1386  TIP3      H2             13.4958812922      -14.1097763765      -25.1080541586  W2        1386            0.0000000000
      4159      1387  TIP3      OH2            10.6060912922       -2.3735563765      -26.9153641586  W2        1387            0.0000000000
      4160      1387  TIP3      H1              9.7897012922       -1.8765863765      -26.8629341586  W2        1387            0.0000000000
      4161      1387  TIP3      H2             11.1357212922       -1.8982063765      -27.5554841586  W2        1387            0.0000000000
      4162      1388  TIP3      OH2            10.1374712922      -12.7761563765      -24.9432741586  W2        1388            0.0000000000
      4163      1388  TIP3      H1             10.9497312922      -12.2718363765      -24.8971041586  W2        1388            0.0000000000
      4164      1388  TIP3      H2              9.8927712922      -12.9211863765      -24.0293141586  W2        1388            0.0000000000
      4165      1389  TIP3      OH2            10.6731112922      -11.7898863765      -15.7586141586  W2        1389            0.0000000000
      4166      1389  TIP3      H1             10.7921412922      -11.2163463765      -15.0015741586  W2        1389            0.0000000000
      4167      1389  TIP3      H2             11.3285712922      -12.4779463765      -15.6438341586  W2        1389            0.0000000000
      4168      1390  TIP3      OH2            11.0211412922      -15.6948563765      -24.0051641586  W2        1390            0.0000000000
      4169      1390  TIP3      H1             10.6744912922      -15.0777963765      -23.3607341586  W2        1390            0.0000000000
      4170      1390  TIP3      H2             11.6798312922      -15.1942863765      -24.4866141586  W2        1390            0.0000000000
      4171      1391  TIP3      OH2             7.9444012922       -1.3298363765      -26.9336741586  W2        1391            0.0000000000
      4172      1391  TIP3      H1              8.1052712922       -0.5300863765      -27.4344141586  W2        1391            0.0000000000
      4173      1391  TIP3      H2              7.7471812922       -1.0232363765      -26.0486141586  W2        1391            0.0000000000
      4174      1392  TIP3      OH2             6.6788412922      -14.6319163765      -27.3179141586  W2        1392            0.0000000000
      4175      1392  TIP3      H1              6.5953212922      -13.7436063765      -26.9712741586  W2        1392            0.0000000000
      4176      1392  TIP3      H2              7.5688712922      -14.8972463765      -27.0862341586  W2        1392            0.0000000000
      4177      1393  TIP3      OH2            16.8776912922      -13.8828563765      -14.9236441586  W2        1393            0.0000000000
      4178      1393  TIP3      H1             15.9612712922      -13.6206863765      -15.0112741586  W2        1393            0.0000000000
      4179      1393  TIP3      H2             17.2131912922      -13.8859563765      -15.8201141586  W2        1393            0.0000000000
      4180      1394  TIP3      OH2            15.4797912922      -10.1327563765      -20.8279141586  W2        1394            0.0000000000
      4181      1394  TIP3      H1             14.6822312922      -10.5477363765      -21.1564141586  W2        1394            0.0000000000
      4182      1394  TIP3      H2             15.9249012922      -10.8233863765      -20.3368641586  W2        1394            0.0000000000
      4183      1395  TIP3      OH2             4.9373712922       -4.2046963765      -28.2574641586  W2        1395            0.0000000000
      4184      1395  TIP3      H1              5.5295212922       -3.5052163765      -27.9812241586  W2        1395            0.0000000000
      4185      1395  TIP3      H2              5.3966712922       -4.6377463765      -28.9770041586  W2        1395            0.0000000000
      4186      1396  TIP3      OH2             3.2532912922      -11.5403963765      -29.1415241586  W2        1396            0.0000000000
      4187      1396  TIP3      H1              3.2085512922      -10.6010863765      -28.9628241586  W2        1396            0.0000000000
      4188      1396  TIP3      H2              2.3656112922      -11.7759063765      -29.4113141586  W2        1396            0.0000000000
      4189      1397  TIP3      OH2            16.5662512922       -0.8765063765      -19.2055641586  W2        1397            0.0000000000
      4190      1397  TIP3      H1             16.4106812922       -0.1980663765      -19.8626341586  W2        1397            0.0000000000
      4191      1397  TIP3      H2             17.4988912922       -0.8045763765      -19.0025041586  W2        1397            0.0000000000
      4192      1398  TIP3      OH2             4.0614912922      -16.7587363765      -20.4684241586  W2        1398            0.0000000000
      4193      1398  TIP3      H1              3.8324712922      -16.6994863765      -21.3959241586  W2        1398            0.0000000000
      4194      1398  TIP3      H2              3.6188312922      -17.5501863765      -20.1620141586  W2        1398            0.0000000000
      4195      1399  TIP3      OH2             2.9918212922       -2.8180263765      -24.3078441586  W2        1399            0.0000000000
      4196      1399  TIP3      H1              2.1596812922       -2.3457563765      -24.2807041586  W2        1399            0.0000000000
      4197      1399  TIP3      H2              3.5376512922       -2.3082663765      -24.9065341586  W2        1399            0.0000000000
      4198      1400  TIP3      OH2             2.2801912922       -0.2056563765      -12.9780441586  W2        1400            0.0000000000
      4199      1400  TIP3      H1              2.8204112922       -0.4222563765      -12.2181241586  W2        1400            0.0000000000
      4200      1400  TIP3      H2              1.7989912922       -1.0110563765      -13.1677941586  W2        1400            0.0000000000
      4201      1401  TIP3      OH2             6.8775312922       -1.2862163765      -11.3576241586  W2        1401            0.0000000000
      4202      1401  TIP3      H1              7.6452512922       -1.7451363765      -11.0167041586  W2        1401            0.0000000000
      4203      1401  TIP3      H2              6.8561512922       -1.5122363765      -12.2875041586  W2        1401            0.0000000000
      4204      1402  TIP3      OH2            10.9694912922       -1.7781563765      -29.9824441586  W2        1402            0.0000000000
      4205      1402  TIP3      H1             10.3255912922       -2.4092963765      -29.6610741586  W2        1402            0.0000000000
      4206      1402  TIP3      H2             11.7313212922       -2.3093563765      -30.2140941586  W2        1402            0.0000000000
      4207      1403  TIP3      OH2            13.4544012922       -2.9061063765      -12.6284741586  W2        1403            0.0000000000
      4208      1403  TIP3      H1             13.1033512922       -3.7628063765      -12.3854341586  W2        1403            0.0000000000
      4209      1403  TIP3      H2             14.1807212922       -2.7634363765      -12.0215741586  W2        1403            0.0000000000
      4210      1404  TIP3      OH2            15.5737812922       -1.9611663765      -29.7486441586  W2        1404            0.0000000000
      4211      1404  TIP3      H1             15.8568212922       -2.7556463765      -29.2959541586  W2        1404            0.0000000000
      4212      1404  TIP3      H2             16.3135712922       -1.7280663765      -30.3095341586  W2        1404            0.0000000000
      4213      1405  TIP3      OH2             2.1871412922       -6.3952463765      -12.0236141586  W2        1405            0.0000000000
      4214      1405  TIP3      H1              2.3311912922       -7.2971763765      -12.3099441586  W2        1405            0.0000000000
      4215      1405  TIP3      H2              1.4148812922       -6.1090363765      -12.5113841586  W2        1405            0.0000000000
      4216      1406  TIP3      OH2             6.5285112922       -6.0516763765      -29.8911541586  W2        1406            0.0000000000
      4217      1406  TIP3      H1              6.5929212922       -6.8457163765      -29.3605141586  W2        1406            0.0000000000
      4218      1406  TIP3      H2              7.1814312922       -6.1703963765      -30.5809541586  W2        1406            0.0000000000
      4219      1407  TIP3      OH2             8.8427512922       -6.4254363765      -12.5909741586  W2        1407            0.0000000000
      4220      1407  TIP3      H1              8.5141312922       -6.1546263765      -13.4482341586  W2        1407            0.0000000000
      4221      1407  TIP3      H2              8.9945712922       -7.3664563765      -12.6784741586  W2        1407            0.0000000000
      4222      1408  TIP3      OH2            11.8808512922       -5.0045063765      -30.1553541586  W2        1408            0.0000000000
      4223      1408  TIP3      H1             11.6122612922       -4.8242963765      -29.2544641586  W2        1408            0.0000000000
      4224      1408  TIP3      H2             11.6744112922       -5.9298863765      -30.2867741586  W2        1408            0.0000000000
      4225      1409  TIP3      OH2            14.5772712922       -6.5097063765      -15.2077441586  W2        1409            0.0000000000
      4226      1409  TIP3      H1             15.3227512922       -5.9213363765      -15.3273441586  W2        1409            0.0000000000
      4227      1409  TIP3      H2             13.8199512922       -5.9277363765      -15.1444341586  W2        1409            0.0000000000
      4228      1410  TIP3      OH2             3.0197912922       -9.1949163765      -12.6036841586  W2        1410            0.0000000000
      4229      1410  TIP3      H1              3.4279112922      -10.0522563765      -12.7246241586  W2        1410            0.0000000000
      4230      1410  TIP3      H2              2.7595512922       -9.1807863765      -11.6826541586  W2        1410            0.0000000000
      4231      1411  TIP3      OH2             7.6778912922       -8.0790563765      -27.5853541586  W2        1411            0.0000000000
      4232      1411  TIP3      H1              7.2180912922       -8.5632263765      -26.8995041586  W2        1411            0.0000000000
      4233      1411  TIP3      H2              7.9327612922       -8.7475163765      -28.2213041586  W2        1411            0.0000000000
      4234      1412  TIP3      OH2             6.9668212922      -10.1863463765      -15.2293941586  W2        1412            0.0000000000
      4235      1412  TIP3      H1              6.3484312922       -9.5116863765      -14.9489241586  W2        1412            0.0000000000
      4236      1412  TIP3      H2              7.3109412922       -9.8649563765      -16.0627741586  W2        1412            0.0000000000
      4237      1413  TIP3      OH2             8.7489312922       -9.8358763765      -29.3230341586  W2        1413            0.0000000000
      4238      1413  TIP3      H1              8.5684312922       -9.9907563765      -30.2502041586  W2        1413            0.0000000000
      4239      1413  TIP3      H2              9.6989812922       -9.7280063765      -29.2782441586  W2        1413            0.0000000000
      4240      1414  TIP3      OH2            11.9866412922       -7.7148163765      -11.9519141586  W2        1414            0.0000000000
      4241      1414  TIP3      H1             12.9397612922       -7.6309063765      -11.9793141586  W2        1414            0.0000000000
      4242      1414  TIP3      H2             11.8261012922       -8.4266363765      -11.3324241586  W2        1414            0.0000000000
      4243      1415  TIP3      OH2            18.1387612922       -7.4814563765      -29.8772241586  W2        1415            0.0000000000
      4244      1415  TIP3      H1             17.8652412922       -7.9059063765      -30.6903941586  W2        1415            0.0000000000
      4245      1415  TIP3      H2             18.1781712922       -6.5500063765      -30.0941841586  W2        1415            0.0000000000
      4246      1416  TIP3      OH2             7.3061912922      -12.8312663765      -14.1470841586  W2        1416            0.0000000000
      4247      1416  TIP3      H1              7.4562812922      -13.5601363765      -14.7491141586  W2        1416            0.0000000000
      4248      1416  TIP3      H2              7.3084312922      -12.0540963765      -14.7058641586  W2        1416            0.0000000000
      4249      1417  TIP3      OH2             7.7187612922      -14.4616863765      -16.6543441586  W2        1417            0.0000000000
      4250      1417  TIP3      H1              8.2545112922      -14.0100163765      -17.3064141586  W2        1417            0.0000000000
      4251      1417  TIP3      H2              6.8667212922      -14.5697063765      -17.0769341586  W2        1417            0.0000000000
      4252      1418  TIP3      OH2             9.3006012922       -9.0220663765      -16.4148241586  W2        1418            0.0000000000
      4253      1418  TIP3      H1             10.0510812922       -9.1783163765      -16.9880441586  W2        1418            0.0000000000
      4254      1418  TIP3      H2              8.9614312922       -8.1704063765      -16.6902741586  W2        1418            0.0000000000
      4255      1419  TIP3      OH2            13.7162212922      -11.2068863765      -11.3862941586  W2        1419            0.0000000000
      4256      1419  TIP3      H1             13.9083512922      -12.1379463765      -11.4978441586  W2        1419            0.0000000000
      4257      1419  TIP3      H2             14.5738512922      -10.7819363765      -11.3967541586  W2        1419            0.0000000000
      4258      1420  TIP3      OH2            15.0329412922       -8.4183663765      -13.3090241586  W2        1420            0.0000000000
      4259      1420  TIP3      H1             14.7514412922       -7.7089063765      -13.8866441586  W2        1420            0.0000000000
      4260      1420  TIP3      H2             15.9753712922       -8.4910663765      -13.4599041586  W2        1420            0.0000000000
      4261      1421  TIP3      OH2             5.7848212922      -11.6329163765      -12.2355241586  W2        1421            0.0000000000
      4262      1421  TIP3      H1              5.0177212922      -12.1654363765      -12.4457641586  W2        1421            0.0000000000
      4263      1421  TIP3      H2              6.4637212922      -11.9428763765      -12.8348941586  W2        1421            0.0000000000
      4264      1422  TIP3      OH2             8.5243112922      -17.0051163765      -16.2229841586  W2        1422            0.0000000000
      4265      1422  TIP3      H1              8.4262712922      -16.0587963765      -16.3283641586  W2        1422            0.0000000000
      4266      1422  TIP3      H2              7.7819312922      -17.3777363765      -16.6986341586  W2        1422            0.0000000000
      4267      1423  TIP3      OH2             9.7883612922      -12.6835763765      -12.6591441586  W2        1423            0.0000000000
      4268      1423  TIP3      H1              9.5529012922      -12.9029063765      -11.7576541586  W2        1423            0.0000000000
      4269      1423  TIP3      H2              9.0050512922      -12.8904563765      -13.1688941586  W2        1423            0.0000000000
      4270      1424  TIP3      OH2            12.5040212922      -13.5562263765      -13.5837941586  W2        1424            0.0000000000
      4271      1424  TIP3      H1             11.5565612922      -13.5242563765      -13.4514641586  W2        1424            0.0000000000
      4272      1424  TIP3      H2             12.8166912922      -14.1815163765      -12.9299741586  W2        1424            0.0000000000
      4273      1425  TIP3      OH2            14.1381712922      -14.9221163765      -11.5786041586  W2        1425            0.0000000000
      4274      1425  TIP3      H1             14.0413512922      -15.8743863765      -11.5844141586  W2        1425            0.0000000000
      4275      1425  TIP3      H2             13.8164812922      -14.6534363765      -10.7180541586  W2        1425            0.0000000000
      4276      1426  TIP3      OH2             3.9651012922      -13.7125363765      -12.5310541586  W2        1426            0.0000000000
      4277      1426  TIP3      H1              4.1768412922      -14.4189263765      -13.1413041586  W2        1426            0.0000000000
      4278      1426  TIP3      H2              3.8538512922      -14.1499363765      -11.6869341586  W2        1426            0.0000000000
      4279      1427  TIP3      OH2             8.7461212922      -17.7113763765      -13.5517041586  W2        1427            0.0000000000
      4280      1427  TIP3      H1              9.4579612922      -18.3511563765      -13.5657941586  W2        1427            0.0000000000
      4281      1427  TIP3      H2              8.6451612922      -17.4445463765      -14.4653941586  W2        1427            0.0000000000
      4282      1428  TIP3      OH2             9.0998712922      -16.0285363765      -11.4980741586  W2        1428            0.0000000000
      4283      1428  TIP3      H1              8.9680912922      -16.5041563765      -12.3182241586  W2        1428            0.0000000000
      4284      1428  TIP3      H2              8.5006112922      -15.2841763765      -11.5533641586  W2        1428            0.0000000000
      4285      1429  TIP3      OH2             8.6461012922        0.8544936235      -28.3216741586  W2        1429            0.0000000000
      4286      1429  TIP3      H1              9.5791712922        1.0123636235      -28.1778341586  W2        1429            0.0000000000
      4287      1429  TIP3      H2              8.3819812922        1.5297936235      -28.9465241586  W2        1429            0.0000000000
      4288      1430  TIP3      OH2             2.2145912922       -4.5091263765      -28.8388641586  W2        1430            0.0000000000
      4289      1430  TIP3      H1              3.1285112922       -4.4302363765      -28.5654741586  W2        1430            0.0000000000
      4290      1430  TIP3      H2              2.2219012922       -5.1961663765      -29.5053041586  W2        1430            0.0000000000
      4291      1431  TIP3      OH2             0.8636512922        0.8837236235      -23.7614741586  W2        1431            0.0000000000
      4292      1431  TIP3      H1              0.2163612922        0.4218936235      -24.2943541586  W2        1431            0.0000000000
      4293      1431  TIP3      H2              1.2181112922        0.2120536235      -23.1788541586  W2        1431            0.0000000000
      4294      1432  TIP3      OH2             1.7335712922       -1.0355763765      -21.9568541586  W2        1432            0.0000000000
      4295      1432  TIP3      H1              1.3992512922       -1.9158463765      -21.7848341586  W2        1432            0.0000000000
      4296      1432  TIP3      H2              1.9558112922       -0.6900763765      -21.0922941586  W2        1432            0.0000000000
      4297      1433  TIP3      OH2            19.2820512922       -0.2259363765      -18.9763741586  W2        1433            0.0000000000
      4298      1433  TIP3      H1             19.2607212922       -0.0410963765      -18.0374341586  W2        1433            0.0000000000
      4299      1433  TIP3      H2             19.9726712922        0.3424636235      -19.3172341586  W2        1433            0.0000000000
      4300      1434  TIP3      OH2            18.8453412922       -0.6588263765      -16.0544641586  W2        1434            0.0000000000
      4301      1434  TIP3      H1             18.3582112922       -1.3944163765      -16.4257241586  W2        1434            0.0000000000
      4302      1434  TIP3      H2             19.3946112922       -1.0524363765      -15.3765241586  W2        1434            0.0000000000
      4303      1435  TIP3      OH2            17.2960712922       -4.8690163765      -11.4164341586  W2        1435            0.0000000000
      4304      1435  TIP3      H1             16.4301812922       -4.9740463765      -11.0222041586  W2        1435            0.0000000000
      4305      1435  TIP3      H2             17.6726612922       -4.1106863765      -10.9699641586  W2        1435            0.0000000000
      4306      1436  TIP3      OH2            18.5970412922       -6.6126463765      -25.9021841586  W2        1436            0.0000000000
      4307      1436  TIP3      H1             19.4471812922       -6.1915563765      -25.7750241586  W2        1436            0.0000000000
      4308      1436  TIP3      H2             18.6025512922       -7.3526363765      -25.2950441586  W2        1436            0.0000000000
      4309      1437  TIP3      OH2            18.9916012922       -8.5589063765      -24.0786141586  W2        1437            0.0000000000
      4310      1437  TIP3      H1             18.2650612922       -9.0386463765      -23.6808541586  W2        1437            0.0000000000
      4311      1437  TIP3      H2             19.5729312922       -8.3534363765      -23.3464541586  W2        1437            0.0000000000
      4312      1438  TIP3      OH2            18.7507212922       -5.7741563765      -19.1308541586  W2        1438            0.0000000000
      4313      1438  TIP3      H1             19.5841412922       -6.1521563765      -19.4114941586  W2        1438            0.0000000000
      4314      1438  TIP3      H2             18.8627512922       -4.8310363765      -19.2499441586  W2        1438            0.0000000000
      4315      1439  TIP3      OH2            17.2369512922       -2.8964063765      -16.8240141586  W2        1439            0.0000000000
      4316      1439  TIP3      H1             16.5894812922       -2.5712563765      -16.1984941586  W2        1439            0.0000000000
      4317      1439  TIP3      H2             16.7193512922       -3.3366363765      -17.4981841586  W2        1439            0.0000000000
      4318      1440  TIP3      OH2            19.2599112922       -8.6580563765      -27.6874841586  W2        1440            0.0000000000
      4319      1440  TIP3      H1             18.7380212922       -8.3016463765      -28.4063941586  W2        1440            0.0000000000
      4320      1440  TIP3      H2             19.2268312922       -7.9832763765      -27.0093941586  W2        1440            0.0000000000
      4321      1441  TIP3      OH2            17.6088112922      -11.4184963765      -29.1367741586  W2        1441            0.0000000000
      4322      1441  TIP3      H1             17.7052512922      -10.7517963765      -29.8168041586  W2        1441            0.0000000000
      4323      1441  TIP3      H2             17.4687712922      -12.2338663765      -29.6182241586  W2        1441            0.0000000000
      4324      1442  TIP3      OH2            16.7782812922      -10.0382563765      -23.5157441586  W2        1442            0.0000000000
      4325      1442  TIP3      H1             16.6281612922      -10.9833963765      -23.5359641586  W2        1442            0.0000000000
      4326      1442  TIP3      H2             16.4247312922       -9.7571163765      -22.6718341586  W2        1442            0.0000000000
      4327      1443  TIP3      OH2             1.8135212922       -7.9600363765      -19.5053641586  W2        1443            0.0000000000
      4328      1443  TIP3      H1              1.9978112922       -8.0418663765      -20.4410741586  W2        1443            0.0000000000
      4329      1443  TIP3      H2              2.6628112922       -8.0843363765      -19.0817241586  W2        1443            0.0000000000
      4330      1444  TIP3      OH2            17.6345712922       -8.0679263765      -13.8769141586  W2        1444            0.0000000000
      4331      1444  TIP3      H1             18.2173012922       -8.8026963765      -13.6851941586  W2        1444            0.0000000000
      4332      1444  TIP3      H2             18.1985012922       -7.2958963765      -13.8303341586  W2        1444            0.0000000000
      4333      1445  TIP3      OH2            19.1312812922      -10.1653463765      -13.1923741586  W2        1445            0.0000000000
      4334      1445  TIP3      H1             18.2679512922      -10.5441363765      -13.3579041586  W2        1445            0.0000000000
      4335      1445  TIP3      H2             19.7356512922      -10.9038663765      -13.2667941586  W2        1445            0.0000000000
      4336      1446  TIP3      OH2            16.8561912922      -14.0105163765      -30.0192241586  W2        1446            0.0000000000
      4337      1446  TIP3      H1             17.4667712922      -14.3818363765      -29.3824041586  W2        1446            0.0000000000
      4338      1446  TIP3      H2             16.0193412922      -14.4318263765      -29.8232241586  W2        1446            0.0000000000
      4339      1447  TIP3      OH2            16.4887612922      -12.4556763765      -25.0532341586  W2        1447            0.0000000000
      4340      1447  TIP3      H1             16.7684712922      -13.3626363765      -24.9290641586  W2        1447            0.0000000000
      4341      1447  TIP3      H2             17.2479312922      -12.0215263765      -25.4423141586  W2        1447            0.0000000000
      4342      1448  TIP3      OH2            17.1005912922      -11.8739363765      -19.6173441586  W2        1448            0.0000000000
      4343      1448  TIP3      H1             18.0333912922      -11.6619463765      -19.6517441586  W2        1448            0.0000000000
      4344      1448  TIP3      H2             16.8653412922      -11.7727263765      -18.6950441586  W2        1448            0.0000000000
      4345      1449  TIP3      OH2            17.1297812922      -11.1374063765      -16.8414041586  W2        1449            0.0000000000
      4346      1449  TIP3      H1             16.2869112922      -10.8693663765      -16.4754241586  W2        1449            0.0000000000
      4347      1449  TIP3      H2             17.5722112922      -10.3152163765      -17.0522941586  W2        1449            0.0000000000
      4348      1450  TIP3      OH2             1.4110012922      -12.6895363765      -13.3644841586  W2        1450            0.0000000000
      4349      1450  TIP3      H1              2.3304912922      -12.8117063765      -13.1281741586  W2        1450            0.0000000000
      4350      1450  TIP3      H2              0.9614512922      -13.4395663765      -12.9751341586  W2        1450            0.0000000000
      4351      1451  TIP3      OH2            19.4129412922      -17.1573863765      -11.4879041586  W2        1451            0.0000000000
      4352      1451  TIP3      H1             19.7626412922      -17.8110363765      -12.0934341586  W2        1451            0.0000000000
      4353      1451  TIP3      H2             19.5598912922      -16.3199763765      -11.9276441586  W2        1451            0.0000000000
      4354      1452  TIP3      OH2            17.1022412922      -15.1927463765      -25.0050341586  W2        1452            0.0000000000
      4355      1452  TIP3      H1             17.2847412922      -15.6415963765      -24.1795341586  W2        1452            0.0000000000
      4356      1452  TIP3      H2             16.5025312922      -15.7773063765      -25.4685741586  W2        1452            0.0000000000
      4357      1453  TIP3      OH2             2.6322512922      -14.3773763765      -20.4731941586  W2        1453            0.0000000000
      4358      1453  TIP3      H1              3.0774112922      -15.1691263765      -20.1712241586  W2        1453            0.0000000000
      4359      1453  TIP3      H2              3.0985512922      -13.6608563765      -20.0426341586  W2        1453            0.0000000000
      4360      1454  TIP3      OH2             0.9362812922      -11.3780763765      -19.4041741586  W2        1454            0.0000000000
      4361      1454  TIP3      H1              1.4282612922      -11.5990263765      -20.1949741586  W2        1454            0.0000000000
      4362      1454  TIP3      H2              1.2983712922      -10.5377363765      -19.1232241586  W2        1454            0.0000000000
      4363      1455  TIP3      OH2            18.9326612922      -15.0479263765      -13.1387741586  W2        1455            0.0000000000
      4364      1455  TIP3      H1             18.0152312922      -14.7772163765      -13.1744241586  W2        1455            0.0000000000
      4365      1455  TIP3      H2             19.0556012922      -15.5830863765      -13.9228041586  W2        1455            0.0000000000
      4366      1456  TIP3      OH2            18.9688612922      -15.1249363765      -28.4770041586  W2        1456            0.0000000000
      4367      1456  TIP3      H1             19.3811212922      -15.8463663765      -28.9522041586  W2        1456            0.0000000000
      4368      1456  TIP3      H2             19.6505112922      -14.4554763765      -28.4185741586  W2        1456            0.0000000000
      4369      1457  TIP3      OH2             1.2499312922      -15.1201663765      -25.3499341586  W2        1457            0.0000000000
      4370      1457  TIP3      H1              0.3247712922      -14.9115063765      -25.4793841586  W2        1457            0.0000000000
      4371      1457  TIP3      H2              1.7039212922      -14.6360863765      -26.0397041586  W2        1457            0.0000000000
      4372      1458  TIP3      OH2            16.0206512922       -0.1359963765      -23.4041941586  W2        1458            0.0000000000
      4373      1458  TIP3      H1             16.6729412922       -0.4837863765      -24.0122841586  W2        1458            0.0000000000
      4374      1458  TIP3      H2             16.5310312922        0.3523236235      -22.7582241586  W2        1458            0.0000000000
      4375      1459  TIP3      OH2             1.2134712922      -16.3822663765      -17.0056841586  W2        1459            0.0000000000
      4376      1459  TIP3      H1              0.5485212922      -16.6282363765      -16.3625941586  W2        1459            0.0000000000
      4377      1459  TIP3      H2              0.7706012922      -15.7602263765      -17.5828841586  W2        1459            0.0000000000
      4378      1460  TIP3      OH2             3.4054012922       -3.2068563765      -12.8611041586  W2        1460            0.0000000000
      4379      1460  TIP3      H1              2.5846512922       -3.0322063765      -13.3216341586  W2        1460            0.0000000000
      4380      1460  TIP3      H2              3.1531812922       -3.2803863765      -11.9406641586  W2        1460            0.0000000000
      4381      1461  TIP3      OH2             6.3596912922       -2.2327363765      -16.6027041586  W2        1461            0.0000000000
      4382      1461  TIP3      H1              5.9348012922       -1.4228863765      -16.8852441586  W2        1461            0.0000000000
      4383      1461  TIP3      H2              7.2639712922       -2.1473263765      -16.9047241586  W2        1461            0.0000000000
      4384      1462  TIP3      OH2            10.6708312922       -0.8337363765      -13.6433341586  W2        1462            0.0000000000
      4385      1462  TIP3      H1             10.8555812922       -1.1671263765      -12.7653041586  W2        1462            0.0000000000
      4386      1462  TIP3      H2             11.5172812922       -0.5238763765      -13.9654141586  W2        1462            0.0000000000
      4387      1463  TIP3      OH2            13.0158712922        0.4521536235      -14.3991941586  W2        1463            0.0000000000
      4388      1463  TIP3      H1             13.6927612922       -0.1806163765      -14.6392741586  W2        1463            0.0000000000
      4389      1463  TIP3      H2             13.3377512922        0.8532036235      -13.5918641586  W2        1463            0.0000000000
      4390      1464  TIP3      OH2            17.9332512922      -16.9582963765      -15.3196941586  W2        1464            0.0000000000
      4391      1464  TIP3      H1             17.1206012922      -16.6332663765      -15.7072241586  W2        1464            0.0000000000
      4392      1464  TIP3      H2             18.1661012922      -17.7184463765      -15.8527841586  W2        1464            0.0000000000
      4393      1465  TIP3      OH2             3.7613612922        1.0236536235      -16.5551741586  W2        1465            0.0000000000
      4394      1465  TIP3      H1              3.0410012922        1.4637536235      -17.0064041586  W2        1465            0.0000000000
      4395      1465  TIP3      H2              3.3957612922        0.7731236235      -15.7067741586  W2        1465            0.0000000000
      4396      1466  TIP3      OH2             6.2286212922        0.6240436235      -17.5254541586  W2        1466            0.0000000000
      4397      1466  TIP3      H1              5.3638412922        0.6958936235      -17.1214441586  W2        1466            0.0000000000
      4398      1466  TIP3      H2              6.1735212922        1.1707736235      -18.3092041586  W2        1466            0.0000000000
      4399      1467  TIP3      OH2            10.9391812922        0.5119336235      -18.3498541586  W2        1467            0.0000000000
      4400      1467  TIP3      H1             10.4825812922        1.0409036235      -19.0040141586  W2        1467            0.0000000000
      4401      1467  TIP3      H2             11.1019812922        1.1150736235      -17.6246241586  W2        1467            0.0000000000
      4402      1468  TIP3      OH2            13.2668112922       -0.6101063765      -17.4048241586  W2        1468            0.0000000000
      4403      1468  TIP3      H1             12.3621812922       -0.4450863765      -17.6706141586  W2        1468            0.0000000000
      4404      1468  TIP3      H2             13.6956712922        0.2431136235      -17.4704841586  W2        1468            0.0000000000
      4405      1469  TIP3      OH2            15.8710012922        0.9598036235      -17.1100441586  W2        1469            0.0000000000
      4406      1469  TIP3      H1             15.6892012922        1.8756936235      -17.3205541586  W2        1469            0.0000000000
      4407      1469  TIP3      H2             16.0477812922        0.5495136235      -17.9565841586  W2        1469            0.0000000000
      4408      1470  TIP3      OH2             3.1761712922       -0.3530963765      -19.6449941586  W2        1470            0.0000000000
      4409      1470  TIP3      H1              3.1577712922       -0.7785863765      -18.7877641586  W2        1470            0.0000000000
      4410      1470  TIP3      H2              3.9809612922       -0.6715963765      -20.0537741586  W2        1470            0.0000000000
      4411      1471  TIP3      OH2             5.3174812922       -1.6432263765      -20.9900041586  W2        1471            0.0000000000
      4412      1471  TIP3      H1              5.0985512922       -2.5594863765      -20.8204041586  W2        1471            0.0000000000
      4413      1471  TIP3      H2              6.1417012922       -1.5031863765      -20.5238641586  W2        1471            0.0000000000
      4414      1472  TIP3      OH2             7.8547312922       -1.1732963765      -20.1412041586  W2        1472            0.0000000000
      4415      1472  TIP3      H1              8.0673012922       -2.0613963765      -20.4281141586  W2        1472            0.0000000000
      4416      1472  TIP3      H2              7.9192412922       -1.2075263765      -19.1868041586  W2        1472            0.0000000000
      4417      1473  TIP3      OH2            11.3631012922      -15.5092363765      -20.9968741586  W2        1473            0.0000000000
      4418      1473  TIP3      H1             10.6887812922      -16.1386763765      -20.7412941586  W2        1473            0.0000000000
      4419      1473  TIP3      H2             11.9270212922      -15.9933463765      -21.6000841586  W2        1473            0.0000000000
      4420      1474  TIP3      OH2            16.5058212922      -17.4018363765      -20.8841641586  W2        1474            0.0000000000
      4421      1474  TIP3      H1             17.1095812922      -16.8542963765      -21.3860641586  W2        1474            0.0000000000
      4422      1474  TIP3      H2             15.6360212922      -17.0827963765      -21.1247541586  W2        1474            0.0000000000
      4423      1475  TIP3      OH2            18.2328612922      -16.2629663765      -22.5510741586  W2        1475            0.0000000000
      4424      1475  TIP3      H1             18.8446112922      -16.7773963765      -23.0777141586  W2        1475            0.0000000000
      4425      1475  TIP3      H2             18.6152012922      -15.3857563765      -22.5276341586  W2        1475            0.0000000000
      4426      1476  TIP3      OH2             3.6898512922      -16.8752063765      -23.1748841586  W2        1476            0.0000000000
      4427      1476  TIP3      H1              2.9128312922      -17.1097163765      -23.6822941586  W2        1476            0.0000000000
      4428      1476  TIP3      H2              4.2202112922      -17.6719963765      -23.1660841586  W2        1476            0.0000000000
      4429      1477  TIP3      OH2             2.5261912922      -17.0773963765      -27.3712741586  W2        1477            0.0000000000
      4430      1477  TIP3      H1              2.9652612922      -16.4663463765      -27.9629241586  W2        1477            0.0000000000
      4431      1477  TIP3      H2              1.8924312922      -16.5389863765      -26.8972741586  W2        1477            0.0000000000
      4432      1478  TIP3      OH2             8.2691112922      -16.9484963765      -23.3615741586  W2        1478            0.0000000000
      4433      1478  TIP3      H1              9.1434512922      -16.5600663765      -23.3911441586  W2        1478            0.0000000000
      4434      1478  TIP3      H2              8.1331912922      -17.1637163765      -22.4388541586  W2        1478            0.0000000000
      4435      1479  TIP3      OH2            13.8259512922      -16.9185163765      -21.7124041586  W2        1479            0.0000000000
      4436      1479  TIP3      H1             13.9021112922      -16.8233563765      -22.6618041586  W2        1479            0.0000000000
      4437      1479  TIP3      H2             13.5508712922      -17.8262263765      -21.5834941586  W2        1479            0.0000000000
      4438      1480  TIP3      OH2            15.1792112922      -16.8927363765      -26.0199041586  W2        1480            0.0000000000
      4439      1480  TIP3      H1             14.4763212922      -16.2778163765      -26.2297641586  W2        1480            0.0000000000
      4440      1480  TIP3      H2             14.7343512922      -17.7300663765      -25.8888141586  W2        1480            0.0000000000
      4441      1481  TIP3      OH2             2.4271412922       -1.1291763765      -26.4737641586  W2        1481            0.0000000000
      4442      1481  TIP3      H1              1.7421312922       -1.1672863765      -27.1412541586  W2        1481            0.0000000000
      4443      1481  TIP3      H2              2.4308612922       -0.2164163765      -26.1855541586  W2        1481            0.0000000000
      4444      1482  TIP3      OH2             4.3871012922      -15.1612463765      -28.9288641586  W2        1482            0.0000000000
      4445      1482  TIP3      H1              4.8784412922      -15.7910063765      -29.4563141586  W2        1482            0.0000000000
      4446      1482  TIP3      H2              5.0107312922      -14.8653063765      -28.2657441586  W2        1482            0.0000000000
      4447      1483  TIP3      OH2             9.4131112922      -14.8680963765      -26.4718141586  W2        1483            0.0000000000
      4448      1483  TIP3      H1              9.5912412922      -15.5147763765      -25.7889541586  W2        1483            0.0000000000
      4449      1483  TIP3      H2              9.3597312922      -14.0343263765      -26.0047041586  W2        1483            0.0000000000
      4450      1484  TIP3      OH2            11.2914912922        0.0803136235      -28.0761441586  W2        1484            0.0000000000
      4451      1484  TIP3      H1             12.1575112922        0.4470536235      -28.2543241586  W2        1484            0.0000000000
      4452      1484  TIP3      H2             11.0447712922       -0.3588863765      -28.8900641586  W2        1484            0.0000000000
      4453      1485  TIP3      OH2            18.0004512922       -0.3566563765      -25.3970341586  W2        1485            0.0000000000
      4454      1485  TIP3      H1             17.8061612922       -1.1044463765      -25.9620741586  W2        1485            0.0000000000
      4455      1485  TIP3      H2             17.9614612922        0.4013536235      -25.9802441586  W2        1485            0.0000000000
      4456      1486  TIP3      OH2             3.6476512922      -16.3610163765      -13.6572641586  W2        1486            0.0000000000
      4457      1486  TIP3      H1              3.2814712922      -17.1267563765      -13.2147941586  W2        1486            0.0000000000
      4458      1486  TIP3      H2              4.5605012922      -16.3319963765      -13.3707541586  W2        1486            0.0000000000
      4459      1487  TIP3      OH2             5.6207312922      -17.0105763765      -12.1215541586  W2        1487            0.0000000000
      4460      1487  TIP3      H1              6.5190912922      -17.2845563765      -12.3062141586  W2        1487            0.0000000000
      4461      1487  TIP3      H2              5.2340412922      -17.7529763765      -11.6572941586  W2        1487            0.0000000000
      4462      1488  TIP3      OH2             4.2452612922       -0.2090963765      -29.4485541586  W2        1488            0.0000000000
      4463      1488  TIP3      H1              3.9777212922        0.0771936235      -28.5752441586  W2        1488            0.0000000000
      4464      1488  TIP3      H2              5.0165212922       -0.7551763765      -29.2963041586  W2        1488            0.0000000000
      4465      1489  TIP3      OH2            14.0419612922      -17.6780463765      -11.9392741586  W2        1489            0.0000000000
      4466      1489  TIP3      H1             14.1186812922      -18.1039763765      -11.0855041586  W2        1489            0.0000000000
      4467      1489  TIP3      H2             14.9356212922      -17.6645763765      -12.2819241586  W2        1489            0.0000000000
      4468      1490  TIP3      OH2            17.2180712922       -1.6054163765      -13.2468541586  W2        1490            0.0000000000
      4469      1490  TIP3      H1             16.4362612922       -1.7916163765      -13.7667941586  W2        1490            0.0000000000
      4470      1490  TIP3      H2             17.1460612922       -0.6759863765      -13.0296041586  W2        1490            0.0000000000
      4471      1491  TIP3      OH2            31.6241112922       -7.7189763765      -23.2161341586  W2        1491            0.0000000000
      4472      1491  TIP3      H1             31.7132212922       -6.7751563765      -23.3484241586  W2        1491            0.0000000000
      4473      1491  TIP3      H2             30.9858712922       -7.9943363765      -23.8741941586  W2        1491            0.0000000000
      4474      1492  TIP3      OH2            30.5572412922       -8.4639063765      -19.7973141586  W2        1492            0.0000000000
      4475      1492  TIP3      H1             30.5189912922       -9.1102763765      -19.0923541586  W2        1492            0.0000000000
      4476      1492  TIP3      H2             30.2348912922       -8.9304663765      -20.5684441586  W2        1492            0.0000000000
      4477      1493  TIP3      OH2            22.9257412922       -8.8496963765      -18.2043241586  W2        1493            0.0000000000
      4478      1493  TIP3      H1             22.9669512922       -9.4753663765      -17.4810841586  W2        1493            0.0000000000
      4479      1493  TIP3      H2             23.6285112922       -8.2258363765      -18.0222841586  W2        1493            0.0000000000
      4480      1494  TIP3      OH2            34.2632612922       -5.5248663765      -21.4958041586  W2        1494            0.0000000000
      4481      1494  TIP3      H1             33.8225312922       -6.2452663765      -21.0452441586  W2        1494            0.0000000000
      4482      1494  TIP3      H2             34.2502312922       -4.8041463765      -20.8660341586  W2        1494            0.0000000000
      4483      1495  TIP3      OH2            23.8490512922       -4.3998063765      -19.6694141586  W2        1495            0.0000000000
      4484      1495  TIP3      H1             23.4795712922       -5.2017563765      -20.0389841586  W2        1495            0.0000000000
      4485      1495  TIP3      H2             24.7901612922       -4.5683163765      -19.6230741586  W2        1495            0.0000000000
      4486      1496  TIP3      OH2            20.4591012922      -10.7395463765      -24.2765341586  W2        1496            0.0000000000
      4487      1496  TIP3      H1             20.0114412922       -9.8936763765      -24.2948841586  W2        1496            0.0000000000
      4488      1496  TIP3      H2             19.8982212922      -11.3191263765      -24.7920241586  W2        1496            0.0000000000
      4489      1497  TIP3      OH2            21.1697112922       -8.5775863765      -22.1507341586  W2        1497            0.0000000000
      4490      1497  TIP3      H1             21.3830612922       -9.3474263765      -21.6234341586  W2        1497            0.0000000000
      4491      1497  TIP3      H2             21.9074712922       -8.4879163765      -22.7539741586  W2        1497            0.0000000000
      4492      1498  TIP3      OH2            31.3748112922       -0.4206963765      -21.2837641586  W2        1498            0.0000000000
      4493      1498  TIP3      H1             31.9944512922       -1.0972263765      -21.5568441586  W2        1498            0.0000000000
      4494      1498  TIP3      H2             31.1665512922       -0.6386163765      -20.3752741586  W2        1498            0.0000000000
      4495      1499  TIP3      OH2            28.9466812922       -6.0317663765      -19.3912141586  W2        1499            0.0000000000
      4496      1499  TIP3      H1             29.2504712922       -6.7176263765      -19.9858041586  W2        1499            0.0000000000
      4497      1499  TIP3      H2             29.6680812922       -5.9128963765      -18.7734141586  W2        1499            0.0000000000
      4498      1500  TIP3      OH2            32.0873812922      -11.6375263765      -19.0637341586  W2        1500            0.0000000000
      4499      1500  TIP3      H1             32.2299712922      -12.5838263765      -19.0435741586  W2        1500            0.0000000000
      4500      1500  TIP3      H2             31.9812812922      -11.4305463765      -19.9922441586  W2        1500            0.0000000000
      4501      1501  TIP3      OH2            25.2422112922      -13.5358863765      -21.7912541586  W2        1501            0.0000000000
      4502      1501  TIP3      H1             25.2853212922      -12.6760363765      -22.2096241586  W2        1501            0.0000000000
      4503      1501  TIP3      H2             24.7846212922      -14.0884163765      -22.4249341586  W2        1501            0.0000000000
      4504      1502  TIP3      OH2            32.9644812922      -13.4053263765      -23.3904241586  W2        1502            0.0000000000
      4505      1502  TIP3      H1             33.6109112922      -13.7340063765      -22.7656641586  W2        1502            0.0000000000
      4506      1502  TIP3      H2             33.4744212922      -12.8874263765      -24.0132841586  W2        1502            0.0000000000
      4507      1503  TIP3      OH2            21.8623612922      -11.1393063765      -21.0291141586  W2        1503            0.0000000000
      4508      1503  TIP3      H1             22.5160212922      -11.6891363765      -20.5971041586  W2        1503            0.0000000000
      4509      1503  TIP3      H2             21.8862912922      -11.4134063765      -21.9459141586  W2        1503            0.0000000000
      4510      1504  TIP3      OH2            27.0188112922       -9.5891763765      -21.8139641586  W2        1504            0.0000000000
      4511      1504  TIP3      H1             27.6349112922      -10.1156363765      -21.3045641586  W2        1504            0.0000000000
      4512      1504  TIP3      H2             26.4326912922      -10.2293063765      -22.2176041586  W2        1504            0.0000000000
      4513      1505  TIP3      OH2            24.0524012922      -14.6180463765      -17.7171741586  W2        1505            0.0000000000
      4514      1505  TIP3      H1             23.8335712922      -14.0879863765      -18.4835741586  W2        1505            0.0000000000
      4515      1505  TIP3      H2             23.3844912922      -14.3914963765      -17.0700341586  W2        1505            0.0000000000
      4516      1506  TIP3      OH2            31.4213812922       -5.1179363765      -24.1732641586  W2        1506            0.0000000000
      4517      1506  TIP3      H1             31.1258912922       -5.4407063765      -25.0245741586  W2        1506            0.0000000000
      4518      1506  TIP3      H2             31.0971612922       -4.2182663765      -24.1320041586  W2        1506            0.0000000000
      4519      1507  TIP3      OH2            26.6215412922       -6.9424763765      -17.4298041586  W2        1507            0.0000000000
      4520      1507  TIP3      H1             25.8814512922       -6.3443263765      -17.3262841586  W2        1507            0.0000000000
      4521      1507  TIP3      H2             27.3354912922       -6.3885163765      -17.7454441586  W2        1507            0.0000000000
      4522      1508  TIP3      OH2            34.7283212922      -14.1143963765      -21.4098341586  W2        1508            0.0000000000
      4523      1508  TIP3      H1             34.5131212922      -14.8800563765      -20.8772341586  W2        1508            0.0000000000
      4524      1508  TIP3      H2             35.3840612922      -13.6419363765      -20.8969841586  W2        1508            0.0000000000
      4525      1509  TIP3      OH2            23.6461312922      -12.7258663765      -19.7649541586  W2        1509            0.0000000000
      4526      1509  TIP3      H1             24.2597612922      -12.0931063765      -19.3917141586  W2        1509            0.0000000000
      4527      1509  TIP3      H2             24.1582012922      -13.1983663765      -20.4212641586  W2        1509            0.0000000000
      4528      1510  TIP3      OH2            25.0289712922       -4.9781763765      -16.6426541586  W2        1510            0.0000000000
      4529      1510  TIP3      H1             25.0237312922       -4.0988263765      -17.0207241586  W2        1510            0.0000000000
      4530      1510  TIP3      H2             24.1753812922       -5.0617663765      -16.2176641586  W2        1510            0.0000000000
      4531      1511  TIP3      OH2            21.1500612922       -5.3073863765      -25.8607241586  W2        1511            0.0000000000
      4532      1511  TIP3      H1             20.8781512922       -5.0782863765      -26.7494341586  W2        1511            0.0000000000
      4533      1511  TIP3      H2             21.1956312922       -4.4695063765      -25.4001941586  W2        1511            0.0000000000
      4534      1512  TIP3      OH2            34.7750312922       -3.6857963765      -19.1478741586  W2        1512            0.0000000000
      4535      1512  TIP3      H1             33.8334012922       -3.6274063765      -18.9861841586  W2        1512            0.0000000000
      4536      1512  TIP3      H2             35.0516412922       -2.7797463765      -19.2849041586  W2        1512            0.0000000000
      4537      1513  TIP3      OH2            35.0757312922      -15.3992663765      -17.7304841586  W2        1513            0.0000000000
      4538      1513  TIP3      H1             34.3396512922      -14.7885563765      -17.7683541586  W2        1513            0.0000000000
      4539      1513  TIP3      H2             35.7591312922      -14.9843663765      -18.2568441586  W2        1513            0.0000000000
      4540      1514  TIP3      OH2            28.0788712922      -17.3125363765      -20.2646841586  W2        1514            0.0000000000
      4541      1514  TIP3      H1             27.9612912922      -18.2609363765      -20.3188541586  W2        1514            0.0000000000
      4542      1514  TIP3      H2             27.2238812922      -16.9799263765      -19.9915741586  W2        1514            0.0000000000
      4543      1515  TIP3      OH2            33.0271512922       -1.9044463765      -22.5227141586  W2        1515            0.0000000000
      4544      1515  TIP3      H1             33.4523812922       -2.6116563765      -23.0077541586  W2        1515            0.0000000000
      4545      1515  TIP3      H2             33.3441512922       -1.1031763765      -22.9394941586  W2        1515            0.0000000000
      4546      1516  TIP3      OH2            34.1868012922       -4.0035963765      -24.0140541586  W2        1516            0.0000000000
      4547      1516  TIP3      H1             33.9292812922       -4.6935863765      -24.6254641586  W2        1516            0.0000000000
      4548      1516  TIP3      H2             34.2578812922       -4.4464763765      -23.1684641586  W2        1516            0.0000000000
      4549      1517  TIP3      OH2            35.8728212922       -5.4369263765      -15.5367041586  W2        1517            0.0000000000
      4550      1517  TIP3      H1             36.0124512922       -6.0286763765      -16.2760041586  W2        1517            0.0000000000
      4551      1517  TIP3      H2             36.0401012922       -4.5643363765      -15.8928241586  W2        1517            0.0000000000
      4552      1518  TIP3      OH2            30.3453612922       -8.4749763765      -25.7641041586  W2        1518            0.0000000000
      4553      1518  TIP3      H1             29.6339112922       -7.9400063765      -26.1160541586  W2        1518            0.0000000000
      4554      1518  TIP3      H2             31.0363212922       -8.4197663765      -26.4242141586  W2        1518            0.0000000000
      4555      1519  TIP3      OH2            30.3992812922      -10.0175463765      -28.7256041586  W2        1519            0.0000000000
      4556      1519  TIP3      H1             31.1002712922       -9.9948563765      -28.0742041586  W2        1519            0.0000000000
      4557      1519  TIP3      H2             30.7015712922      -10.6455763765      -29.3816741586  W2        1519            0.0000000000
      4558      1520  TIP3      OH2            33.7511312922       -8.2656463765      -24.8125141586  W2        1520            0.0000000000
      4559      1520  TIP3      H1             33.0192312922       -8.0372763765      -24.2394541586  W2        1520            0.0000000000
      4560      1520  TIP3      H2             34.1983512922       -8.9793763765      -24.3577641586  W2        1520            0.0000000000
      4561      1521  TIP3      OH2            33.6484812922      -10.0913863765      -15.7448141586  W2        1521            0.0000000000
      4562      1521  TIP3      H1             33.7283912922       -9.3279463765      -15.1729641586  W2        1521            0.0000000000
      4563      1521  TIP3      H2             33.0472512922       -9.8121463765      -16.4353041586  W2        1521            0.0000000000
      4564      1522  TIP3      OH2            25.3965012922       -7.6350263765      -22.9300141586  W2        1522            0.0000000000
      4565      1522  TIP3      H1             25.0660212922       -8.0056863765      -23.7483141586  W2        1522            0.0000000000
      4566      1522  TIP3      H2             25.9849112922       -8.3056263765      -22.5831841586  W2        1522            0.0000000000
      4567      1523  TIP3      OH2            26.7632512922       -4.2069663765      -20.2487941586  W2        1523            0.0000000000
      4568      1523  TIP3      H1             26.6683812922       -4.7856563765      -21.0053341586  W2        1523            0.0000000000
      4569      1523  TIP3      H2             27.4926112922       -4.5783963765      -19.7525141586  W2        1523            0.0000000000
      4570      1524  TIP3      OH2            25.7630512922       -8.8664663765      -19.2965141586  W2        1524            0.0000000000
      4571      1524  TIP3      H1             26.3283012922       -8.7450463765      -20.0593941586  W2        1524            0.0000000000
      4572      1524  TIP3      H2             26.0819412922       -8.2289663765      -18.6576641586  W2        1524            0.0000000000
      4573      1525  TIP3      OH2            32.0722712922       -3.3632763765      -18.5624641586  W2        1525            0.0000000000
      4574      1525  TIP3      H1             31.8319312922       -2.7009663765      -17.9145441586  W2        1525            0.0000000000
      4575      1525  TIP3      H2             31.8740912922       -4.1977563765      -18.1375041586  W2        1525            0.0000000000
      4576      1526  TIP3      OH2            26.6431212922       -4.4671963765      -14.5793241586  W2        1526            0.0000000000
      4577      1526  TIP3      H1             26.3318712922       -3.6848763765      -14.1240041586  W2        1526            0.0000000000
      4578      1526  TIP3      H2             25.9931412922       -4.6202863765      -15.2651241586  W2        1526            0.0000000000
      4579      1527  TIP3      OH2            32.6220812922       -9.1033563765      -27.1273941586  W2        1527            0.0000000000
      4580      1527  TIP3      H1             33.2016312922       -8.9533263765      -26.3805041586  W2        1527            0.0000000000
      4581      1527  TIP3      H2             33.0360812922       -8.6326163765      -27.8507541586  W2        1527            0.0000000000
      4582      1528  TIP3      OH2            23.5631112922       -8.2690863765      -15.3507541586  W2        1528            0.0000000000
      4583      1528  TIP3      H1             23.6334312922       -7.6184063765      -14.6522541586  W2        1528            0.0000000000
      4584      1528  TIP3      H2             22.6723312922       -8.1663363765      -15.6856641586  W2        1528            0.0000000000
      4585      1529  TIP3      OH2            30.3485712922       -2.3665063765      -23.6920841586  W2        1529            0.0000000000
      4586      1529  TIP3      H1             30.8223312922       -2.0708763765      -22.9146641586  W2        1529            0.0000000000
      4587      1529  TIP3      H2             29.7855012922       -1.6283463765      -23.9251241586  W2        1529            0.0000000000
      4588      1530  TIP3      OH2            24.8827112922       -2.3956963765      -13.8159441586  W2        1530            0.0000000000
      4589      1530  TIP3      H1             24.8902412922       -2.5317263765      -14.7633941586  W2        1530            0.0000000000
      4590      1530  TIP3      H2             23.9667512922       -2.5128863765      -13.5639441586  W2        1530            0.0000000000
      4591      1531  TIP3      OH2            36.3209212922      -17.3533163765      -27.3144241586  W2        1531            0.0000000000
      4592      1531  TIP3      H1             35.4209912922      -17.2144163765      -27.0193641586  W2        1531            0.0000000000
      4593      1531  TIP3      H2             36.5727612922      -16.5218563765      -27.7162541586  W2        1531            0.0000000000
      4594      1532  TIP3      OH2            24.3867712922       -8.5655963765      -25.3407341586  W2        1532            0.0000000000
      4595      1532  TIP3      H1             24.0949012922       -7.7974263765      -25.8316041586  W2        1532            0.0000000000
      4596      1532  TIP3      H2             23.7122912922       -9.2249763765      -25.5035941586  W2        1532            0.0000000000
      4597      1533  TIP3      OH2            20.4797812922       -6.2026763765      -16.5257541586  W2        1533            0.0000000000
      4598      1533  TIP3      H1             19.9786212922       -6.2307363765      -17.3407841586  W2        1533            0.0000000000
      4599      1533  TIP3      H2             20.4851512922       -7.1083563765      -16.2160241586  W2        1533            0.0000000000
      4600      1534  TIP3      OH2            20.2300512922       -3.4222963765      -19.6417341586  W2        1534            0.0000000000
      4601      1534  TIP3      H1             21.1761112922       -3.5665963765      -19.6607841586  W2        1534            0.0000000000
      4602      1534  TIP3      H2             20.1176812922       -2.6380163765      -19.1046141586  W2        1534            0.0000000000
      4603      1535  TIP3      OH2            29.4063012922       -3.1824063765      -15.0832241586  W2        1535            0.0000000000
      4604      1535  TIP3      H1             29.4937612922       -2.3559463765      -14.6083141586  W2        1535            0.0000000000
      4605      1535  TIP3      H2             28.5428112922       -3.5120263765      -14.8342941586  W2        1535            0.0000000000
      4606      1536  TIP3      OH2            29.8208812922        0.5899636235      -25.2771641586  W2        1536            0.0000000000
      4607      1536  TIP3      H1             29.7454812922        0.4686836235      -26.2236441586  W2        1536            0.0000000000
      4608      1536  TIP3      H2             29.8537512922        1.5392336235      -25.1587041586  W2        1536            0.0000000000
      4609      1537  TIP3      OH2            23.4742612922       -0.6213363765      -23.4962641586  W2        1537            0.0000000000
      4610      1537  TIP3      H1             23.6263012922       -0.9692963765      -22.6176141586  W2        1537            0.0000000000
      4611      1537  TIP3      H2             22.6233012922       -0.9776063765      -23.7515441586  W2        1537            0.0000000000
      4612      1538  TIP3      OH2            32.9224812922       -0.2560163765      -28.2749241586  W2        1538            0.0000000000
      4613      1538  TIP3      H1             33.2973212922       -1.0004063765      -28.7456641586  W2        1538            0.0000000000
      4614      1538  TIP3      H2             32.9268512922       -0.5259563765      -27.3565941586  W2        1538            0.0000000000
      4615      1539  TIP3      OH2            32.5912912922       -0.3303063765      -25.5257041586  W2        1539            0.0000000000
      4616      1539  TIP3      H1             31.6562712922       -0.2301163765      -25.3470041586  W2        1539            0.0000000000
      4617      1539  TIP3      H2             32.8714812922       -1.0397063765      -24.9473841586  W2        1539            0.0000000000
      4618      1540  TIP3      OH2            35.5798812922      -11.2630763765      -13.4791441586  W2        1540            0.0000000000
      4619      1540  TIP3      H1             35.1725612922      -10.7825163765      -14.1998141586  W2        1540            0.0000000000
      4620      1540  TIP3      H2             35.6204512922      -12.1684763765      -13.7870641586  W2        1540            0.0000000000
      4621      1541  TIP3      OH2            22.7288312922       -4.8791363765      -15.4824741586  W2        1541            0.0000000000
      4622      1541  TIP3      H1             22.9449612922       -5.2405763765      -14.6228941586  W2        1541            0.0000000000
      4623      1541  TIP3      H2             21.8733012922       -5.2537563765      -15.6921241586  W2        1541            0.0000000000
      4624      1542  TIP3      OH2            25.3476312922      -16.4090863765      -19.4870541586  W2        1542            0.0000000000
      4625      1542  TIP3      H1             24.4860012922      -16.4962663765      -19.8947641586  W2        1542            0.0000000000
      4626      1542  TIP3      H2             25.3252012922      -15.5530763765      -19.0592941586  W2        1542            0.0000000000
      4627      1543  TIP3      OH2            30.0104112922      -16.6870463765      -16.1123541586  W2        1543            0.0000000000
      4628      1543  TIP3      H1             30.4307212922      -17.1023363765      -15.3592941586  W2        1543            0.0000000000
      4629      1543  TIP3      H2             29.0773712922      -16.8657163765      -15.9951541586  W2        1543            0.0000000000
      4630      1544  TIP3      OH2            33.3369012922      -12.9315263765      -15.2589041586  W2        1544            0.0000000000
      4631      1544  TIP3      H1             32.8228512922      -13.0573063765      -14.4613041586  W2        1544            0.0000000000
      4632      1544  TIP3      H2             33.1813712922      -12.0192163765      -15.5032841586  W2        1544            0.0000000000
      4633      1545  TIP3      OH2            34.0993912922       -8.0705263765      -29.4976041586  W2        1545            0.0000000000
      4634      1545  TIP3      H1             34.1414712922       -8.2931363765      -30.4276041586  W2        1545            0.0000000000
      4635      1545  TIP3      H2             34.9486012922       -7.6718163765      -29.3076141586  W2        1545            0.0000000000
      4636      1546  TIP3      OH2            29.6721412922      -14.1947063765      -28.8272741586  W2        1546            0.0000000000
      4637      1546  TIP3      H1             29.4186212922      -14.1755463765      -27.9044641586  W2        1546            0.0000000000
      4638      1546  TIP3      H2             29.4153512922      -15.0661663765      -29.1286541586  W2        1546            0.0000000000
      4639      1547  TIP3      OH2            25.4386412922      -11.4436363765      -18.3920341586  W2        1547            0.0000000000
      4640      1547  TIP3      H1             24.7968512922      -11.4839063765      -17.6830241586  W2        1547            0.0000000000
      4641      1547  TIP3      H2             25.4758412922      -10.5171663765      -18.6297341586  W2        1547            0.0000000000
      4642      1548  TIP3      OH2            25.4355512922      -11.2226263765      -23.4800341586  W2        1548            0.0000000000
      4643      1548  TIP3      H1             24.5428412922      -11.5630163765      -23.5386541586  W2        1548            0.0000000000
      4644      1548  TIP3      H2             25.8862112922      -11.5995363765      -24.2357141586  W2        1548            0.0000000000
      4645      1549  TIP3      OH2            30.9711012922      -10.8065963765      -24.6629541586  W2        1549            0.0000000000
      4646      1549  TIP3      H1             30.5621312922       -9.9917363765      -24.9544741586  W2        1549            0.0000000000
      4647      1549  TIP3      H2             31.6917212922      -10.9465863765      -25.2772441586  W2        1549            0.0000000000
      4648      1550  TIP3      OH2            30.0732612922      -10.6309563765      -13.1748841586  W2        1550            0.0000000000
      4649      1550  TIP3      H1             29.5106412922      -11.3357963765      -12.8541041586  W2        1550            0.0000000000
      4650      1550  TIP3      H2             30.8996012922      -10.7517663765      -12.7071241586  W2        1550            0.0000000000
      4651      1551  TIP3      OH2            31.9758712922      -11.3605563765      -21.8489841586  W2        1551            0.0000000000
      4652      1551  TIP3      H1             31.7803212922      -10.7548763765      -22.5639241586  W2        1551            0.0000000000
      4653      1551  TIP3      H2             32.1571312922      -12.1940363765      -22.2833541586  W2        1551            0.0000000000
      4654      1552  TIP3      OH2            23.1886912922      -11.1232863765      -16.5248341586  W2        1552            0.0000000000
      4655      1552  TIP3      H1             23.1506312922      -10.7231263765      -15.6561241586  W2        1552            0.0000000000
      4656      1552  TIP3      H2             22.6978012922      -11.9400463765      -16.4345441586  W2        1552            0.0000000000
      4657      1553  TIP3      OH2            26.5544312922      -13.7490563765      -29.7262341586  W2        1553            0.0000000000
      4658      1553  TIP3      H1             26.1235012922      -14.1940463765      -28.9964941586  W2        1553            0.0000000000
      4659      1553  TIP3      H2             25.8363012922      -13.3774263765      -30.2384841586  W2        1553            0.0000000000
      4660      1554  TIP3      OH2            19.7967712922      -14.0071063765      -22.6743641586  W2        1554            0.0000000000
      4661      1554  TIP3      H1             20.4275412922      -14.0358963765      -21.9549741586  W2        1554            0.0000000000
      4662      1554  TIP3      H2             20.2462012922      -14.4322363765      -23.4047741586  W2        1554            0.0000000000
      4663      1555  TIP3      OH2            21.0709812922      -13.2609063765      -27.2503241586  W2        1555            0.0000000000
      4664      1555  TIP3      H1             21.5451512922      -12.6699163765      -27.8352341586  W2        1555            0.0000000000
      4665      1555  TIP3      H2             20.3536212922      -12.7306163765      -26.9033141586  W2        1555            0.0000000000
      4666      1556  TIP3      OH2            31.2397912922       -9.7224263765      -17.1777441586  W2        1556            0.0000000000
      4667      1556  TIP3      H1             31.5632712922      -10.3534563765      -17.8206941586  W2        1556            0.0000000000
      4668      1556  TIP3      H2             30.7997212922      -10.2572063765      -16.5170041586  W2        1556            0.0000000000
      4669      1557  TIP3      OH2            28.0170812922      -13.7948763765      -22.3936241586  W2        1557            0.0000000000
      4670      1557  TIP3      H1             27.1061912922      -13.7381963765      -22.1050241586  W2        1557            0.0000000000
      4671      1557  TIP3      H2             28.5223712922      -13.8553263765      -21.5829041586  W2        1557            0.0000000000
      4672      1558  TIP3      OH2            22.8454212922      -12.1662463765      -23.5668641586  W2        1558            0.0000000000
      4673      1558  TIP3      H1             21.9562212922      -12.0666963765      -23.9069041586  W2        1558            0.0000000000
      4674      1558  TIP3      H2             23.1419112922      -13.0079463765      -23.9130741586  W2        1558            0.0000000000
      4675      1559  TIP3      OH2            26.4986012922      -12.1659863765      -25.9104041586  W2        1559            0.0000000000
      4676      1559  TIP3      H1             27.4301512922      -12.0369863765      -25.7320941586  W2        1559            0.0000000000
      4677      1559  TIP3      H2             26.2836312922      -11.4965563765      -26.5599341586  W2        1559            0.0000000000
      4678      1560  TIP3      OH2            32.4222712922      -14.5602463765      -19.1294441586  W2        1560            0.0000000000
      4679      1560  TIP3      H1             31.7454312922      -14.4289363765      -18.4654741586  W2        1560            0.0000000000
      4680      1560  TIP3      H2             31.9367612922      -14.7152963765      -19.9396741586  W2        1560            0.0000000000
      4681      1561  TIP3      OH2            25.1726212922      -10.9717663765      -28.3437941586  W2        1561            0.0000000000
      4682      1561  TIP3      H1             24.6301312922      -11.3513863765      -29.0350341586  W2        1561            0.0000000000
      4683      1561  TIP3      H2             26.0061112922      -10.7772963765      -28.7723841586  W2        1561            0.0000000000
      4684      1562  TIP3      OH2            35.7097812922        1.1112936235      -12.8526841586  W2        1562            0.0000000000
      4685      1562  TIP3      H1             35.9096512922        1.5354836235      -13.6871541586  W2        1562            0.0000000000
      4686      1562  TIP3      H2             36.3651512922        1.4551136235      -12.2456441586  W2        1562            0.0000000000
      4687      1563  TIP3      OH2            23.3077612922       -6.4145763765      -13.2446341586  W2        1563            0.0000000000
      4688      1563  TIP3      H1             24.0400012922       -6.1599863765      -12.6831841586  W2        1563            0.0000000000
      4689      1563  TIP3      H2             22.5276312922       -6.2100363765      -12.7290941586  W2        1563            0.0000000000
      4690      1564  TIP3      OH2            29.3370512922      -11.0075763765      -20.5066641586  W2        1564            0.0000000000
      4691      1564  TIP3      H1             29.9013912922      -11.5539163765      -21.0537041586  W2        1564            0.0000000000
      4692      1564  TIP3      H2             29.1893912922      -11.5293863765      -19.7179041586  W2        1564            0.0000000000
      4693      1565  TIP3      OH2            24.3390212922      -14.8709663765      -24.0881841586  W2        1565            0.0000000000
      4694      1565  TIP3      H1             24.0219712922      -15.7734363765      -24.1236441586  W2        1565            0.0000000000
      4695      1565  TIP3      H2             25.1204312922      -14.8692263765      -24.6410241586  W2        1565            0.0000000000
      4696      1566  TIP3      OH2            27.9636412922      -12.6189663765      -18.0926241586  W2        1566            0.0000000000
      4697      1566  TIP3      H1             27.1281712922      -12.1650163765      -17.9823841586  W2        1566            0.0000000000
      4698      1566  TIP3      H2             28.4877012922      -12.3431163765      -17.3406341586  W2        1566            0.0000000000
      4699      1567  TIP3      OH2            28.5079012922       -6.4061963765      -26.4079841586  W2        1567            0.0000000000
      4700      1567  TIP3      H1             27.7630012922       -6.9136663765      -26.7301941586  W2        1567            0.0000000000
      4701      1567  TIP3      H2             28.3736212922       -6.3573963765      -25.4615041586  W2        1567            0.0000000000
      4702      1568  TIP3      OH2            35.6577912922       -7.2733763765      -17.6212241586  W2        1568            0.0000000000
      4703      1568  TIP3      H1             36.2996712922       -6.8167463765      -18.1650041586  W2        1568            0.0000000000
      4704      1568  TIP3      H2             34.8274812922       -7.1601363765      -18.0838141586  W2        1568            0.0000000000
      4705      1569  TIP3      OH2            32.4055812922      -13.5922063765      -28.2087241586  W2        1569            0.0000000000
      4706      1569  TIP3      H1             31.4670012922      -13.4806463765      -28.3598441586  W2        1569            0.0000000000
      4707      1569  TIP3      H2             32.7027912922      -12.7355163765      -27.9021541586  W2        1569            0.0000000000
      4708      1570  TIP3      OH2            30.0271112922       -6.2218663765      -15.1710741586  W2        1570            0.0000000000
      4709      1570  TIP3      H1             29.6817212922       -6.6036263765      -14.3641141586  W2        1570            0.0000000000
      4710      1570  TIP3      H2             29.8271212922       -5.2885063765      -15.0997841586  W2        1570            0.0000000000
      4711      1571  TIP3      OH2            33.1239312922      -11.7249363765      -26.5479841586  W2        1571            0.0000000000
      4712      1571  TIP3      H1             34.0158312922      -11.8624363765      -26.2288641586  W2        1571            0.0000000000
      4713      1571  TIP3      H2             33.1802912922      -10.9343263765      -27.0846341586  W2        1571            0.0000000000
      4714      1572  TIP3      OH2            23.6327312922       -7.1111963765      -20.6381941586  W2        1572            0.0000000000
      4715      1572  TIP3      H1             24.3774512922       -7.1136263765      -21.2395441586  W2        1572            0.0000000000
      4716      1572  TIP3      H2             23.7103912922       -7.9348163765      -20.1566841586  W2        1572            0.0000000000
      4717      1573  TIP3      OH2            30.6333112922       -4.9477663765      -27.3825241586  W2        1573            0.0000000000
      4718      1573  TIP3      H1             30.3381512922       -4.1209763765      -27.0010441586  W2        1573            0.0000000000
      4719      1573  TIP3      H2             29.9303112922       -5.5670763765      -27.1863841586  W2        1573            0.0000000000
      4720      1574  TIP3      OH2            20.6407012922       -8.6505063765      -15.3233441586  W2        1574            0.0000000000
      4721      1574  TIP3      H1             20.8635612922       -9.0685463765      -14.4915941586  W2        1574            0.0000000000
      4722      1574  TIP3      H2             20.0387112922       -9.2630063765      -15.7460641586  W2        1574            0.0000000000
      4723      1575  TIP3      OH2            27.6571912922       -9.1335163765      -13.1103741586  W2        1575            0.0000000000
      4724      1575  TIP3      H1             27.3612712922       -9.2992163765      -14.0054641586  W2        1575            0.0000000000
      4725      1575  TIP3      H2             28.5887112922       -9.3534863765      -13.1209841586  W2        1575            0.0000000000
      4726      1576  TIP3      OH2            32.2774712922       -3.7603163765      -15.2205741586  W2        1576            0.0000000000
      4727      1576  TIP3      H1             31.3769012922       -3.5770563765      -15.4881841586  W2        1576            0.0000000000
      4728      1576  TIP3      H2             32.3115812922       -3.5013863765      -14.2996941586  W2        1576            0.0000000000
      4729      1577  TIP3      OH2            36.3039712922       -2.7294863765      -26.3881041586  W2        1577            0.0000000000
      4730      1577  TIP3      H1             35.9310812922       -3.5551063765      -26.0790441586  W2        1577            0.0000000000
      4731      1577  TIP3      H2             36.5813212922       -2.9125463765      -27.2857641586  W2        1577            0.0000000000
      4732      1578  TIP3      OH2            33.4643612922       -7.9215363765      -19.3669141586  W2        1578            0.0000000000
      4733      1578  TIP3      H1             32.5360512922       -8.1533463765      -19.3939841586  W2        1578            0.0000000000
      4734      1578  TIP3      H2             33.9154712922       -8.6985563765      -19.6970341586  W2        1578            0.0000000000
      4735      1579  TIP3      OH2            26.0076712922       -3.5933763765      -23.2340441586  W2        1579            0.0000000000
      4736      1579  TIP3      H1             26.5348912922       -2.8199363765      -23.4341641586  W2        1579            0.0000000000
      4737      1579  TIP3      H2             25.1275212922       -3.3684563765      -23.5356441586  W2        1579            0.0000000000
      4738      1580  TIP3      OH2            21.7624412922       -8.7309663765      -28.6468041586  W2        1580            0.0000000000
      4739      1580  TIP3      H1             22.3784312922       -8.1042463765      -28.2673241586  W2        1580            0.0000000000
      4740      1580  TIP3      H2             20.9007012922       -8.4149863765      -28.3751541586  W2        1580            0.0000000000
      4741      1581  TIP3      OH2            27.4349012922       -5.9303863765      -23.6576141586  W2        1581            0.0000000000
      4742      1581  TIP3      H1             27.1939012922       -5.0049463765      -23.6160841586  W2        1581            0.0000000000
      4743      1581  TIP3      H2             26.6942612922       -6.3892563765      -23.2612241586  W2        1581            0.0000000000
      4744      1582  TIP3      OH2            27.9495612922       -1.7810263765      -17.3425041586  W2        1582            0.0000000000
      4745      1582  TIP3      H1             28.3120312922       -0.9264663765      -17.5760641586  W2        1582            0.0000000000
      4746      1582  TIP3      H2             28.4810812922       -2.0728663765      -16.6018741586  W2        1582            0.0000000000
      4747      1583  TIP3      OH2            26.1179812922       -0.9086263765      -24.1123941586  W2        1583            0.0000000000
      4748      1583  TIP3      H1             25.1680312922       -0.8028863765      -24.0610641586  W2        1583            0.0000000000
      4749      1583  TIP3      H2             26.4697912922       -0.0878863765      -23.7676441586  W2        1583            0.0000000000
      4750      1584  TIP3      OH2            31.4936412922       -5.6819563765      -17.6419441586  W2        1584            0.0000000000
      4751      1584  TIP3      H1             31.0677712922       -5.9097863765      -16.8155441586  W2        1584            0.0000000000
      4752      1584  TIP3      H2             32.0742212922       -6.4207763765      -17.8244141586  W2        1584            0.0000000000
      4753      1585  TIP3      OH2            33.6965312922       -4.7529063765      -28.5680441586  W2        1585            0.0000000000
      4754      1585  TIP3      H1             34.0498412922       -5.1329263765      -27.7636941586  W2        1585            0.0000000000
      4755      1585  TIP3      H2             32.7478812922       -4.8464263765      -28.4811141586  W2        1585            0.0000000000
      4756      1586  TIP3      OH2            34.1520612922       -1.1300063765      -15.1724641586  W2        1586            0.0000000000
      4757      1586  TIP3      H1             33.5503812922       -1.6857163765      -15.6678341586  W2        1586            0.0000000000
      4758      1586  TIP3      H2             34.4334312922       -0.4630263765      -15.7987241586  W2        1586            0.0000000000
      4759      1587  TIP3      OH2            22.2746512922      -13.8972363765      -15.7652041586  W2        1587            0.0000000000
      4760      1587  TIP3      H1             21.3818812922      -13.5586963765      -15.8328041586  W2        1587            0.0000000000
      4761      1587  TIP3      H2             22.1759312922      -14.7526263765      -15.3471241586  W2        1587            0.0000000000
      4762      1588  TIP3      OH2            34.5624612922       -6.0807063765      -26.3412541586  W2        1588            0.0000000000
      4763      1588  TIP3      H1             34.2852212922       -6.8087763765      -25.7851441586  W2        1588            0.0000000000
      4764      1588  TIP3      H2             35.4897612922       -5.9615063765      -26.1359941586  W2        1588            0.0000000000
      4765      1589  TIP3      OH2            21.9258512922       -2.0927963765      -17.3302641586  W2        1589            0.0000000000
      4766      1589  TIP3      H1             22.1428812922       -3.0245563765      -17.3612941586  W2        1589            0.0000000000
      4767      1589  TIP3      H2             22.1722012922       -1.8182963765      -16.4469841586  W2        1589            0.0000000000
      4768      1590  TIP3      OH2            27.7873112922       -3.6412963765      -30.1210441586  W2        1590            0.0000000000
      4769      1590  TIP3      H1             28.0262912922       -4.3894863765      -30.6681541586  W2        1590            0.0000000000
      4770      1590  TIP3      H2             27.5184412922       -4.0291263765      -29.2882641586  W2        1590            0.0000000000
      4771      1591  TIP3      OH2            26.7243712922       -4.0709163765      -27.6647841586  W2        1591            0.0000000000
      4772      1591  TIP3      H1             26.8711712922       -4.5909363765      -26.8746941586  W2        1591            0.0000000000
      4773      1591  TIP3      H2             26.7215412922       -3.1641563765      -27.3581941586  W2        1591            0.0000000000
      4774      1592  TIP3      OH2            23.1774812922       -6.8185863765      -27.1542441586  W2        1592            0.0000000000
      4775      1592  TIP3      H1             22.4914112922       -6.4663363765      -26.5872741586  W2        1592            0.0000000000
      4776      1592  TIP3      H2             23.7002712922       -6.0556263765      -27.4008141586  W2        1592            0.0000000000
      4777      1593  TIP3      OH2            31.0089912922      -14.1562063765      -16.8753441586  W2        1593            0.0000000000
      4778      1593  TIP3      H1             31.7077812922      -14.0823363765      -16.2253741586  W2        1593            0.0000000000
      4779      1593  TIP3      H2             30.6281312922      -15.0207063765      -16.7210541586  W2        1593            0.0000000000
      4780      1594  TIP3      OH2            31.7934812922      -14.5040363765      -25.7781141586  W2        1594            0.0000000000
      4781      1594  TIP3      H1             32.0133112922      -14.0324963765      -26.5815741586  W2        1594            0.0000000000
      4782      1594  TIP3      H2             32.3518812922      -14.1097763765      -25.1080541586  W2        1594            0.0000000000
      4783      1595  TIP3      OH2            29.4620912922       -2.3735563765      -26.9153641586  W2        1595            0.0000000000
      4784      1595  TIP3      H1             28.6457012922       -1.8765863765      -26.8629341586  W2        1595            0.0000000000
      4785      1595  TIP3      H2             29.9917212922       -1.8982063765      -27.5554841586  W2        1595            0.0000000000
      4786      1596  TIP3      OH2            28.9934712922      -12.7761563765      -24.9432741586  W2        1596            0.0000000000
      4787      1596  TIP3      H1             29.8057312922      -12.2718363765      -24.8971041586  W2        1596            0.0000000000
      4788      1596  TIP3      H2             28.7487712922      -12.9211863765      -24.0293141586  W2        1596            0.0000000000
      4789      1597  TIP3      OH2            29.5291112922      -11.7898863765      -15.7586141586  W2        1597            0.0000000000
      4790      1597  TIP3      H1             29.6481412922      -11.2163463765      -15.0015741586  W2        1597            0.0000000000
      4791      1597  TIP3      H2             30.1845712922      -12.4779463765      -15.6438341586  W2        1597            0.0000000000
      4792      1598  TIP3      OH2            29.8771412922      -15.6948563765      -24.0051641586  W2        1598            0.0000000000
      4793      1598  TIP3      H1             29.5304912922      -15.0777963765      -23.3607341586  W2        1598            0.0000000000
      4794      1598  TIP3      H2             30.5358312922      -15.1942863765      -24.4866141586  W2        1598            0.0000000000
      4795      1599  TIP3      OH2            26.8004012922       -1.3298363765      -26.9336741586  W2        1599            0.0000000000
      4796      1599  TIP3      H1             26.9612712922       -0.5300863765      -27.4344141586  W2        1599            0.0000000000
      4797      1599  TIP3      H2             26.6031812922       -1.0232363765      -26.0486141586  W2        1599            0.0000000000
      4798      1600  TIP3      OH2            25.5348412922      -14.6319163765      -27.3179141586  W2        1600            0.0000000000
      4799      1600  TIP3      H1             25.4513212922      -13.7436063765      -26.9712741586  W2        1600            0.0000000000
      4800      1600  TIP3      H2             26.4248712922      -14.8972463765      -27.0862341586  W2        1600            0.0000000000
      4801      1601  TIP3      OH2            35.7336912922      -13.8828563765      -14.9236441586  W2        1601            0.0000000000
      4802      1601  TIP3      H1             34.8172712922      -13.6206863765      -15.0112741586  W2        1601            0.0000000000
      4803      1601  TIP3      H2             36.0691912922      -13.8859563765      -15.8201141586  W2        1601            0.0000000000
      4804      1602  TIP3      OH2            34.3357912922      -10.1327563765      -20.8279141586  W2        1602            0.0000000000
      4805      1602  TIP3      H1             33.5382312922      -10.5477363765      -21.1564141586  W2        1602            0.0000000000
      4806      1602  TIP3      H2             34.7809012922      -10.8233863765      -20.3368641586  W2        1602            0.0000000000
      4807      1603  TIP3      OH2            23.7933712922       -4.2046963765      -28.2574641586  W2        1603            0.0000000000
      4808      1603  TIP3      H1             24.3855212922       -3.5052163765      -27.9812241586  W2        1603            0.0000000000
      4809      1603  TIP3      H2             24.2526712922       -4.6377463765      -28.9770041586  W2        1603            0.0000000000
      4810      1604  TIP3      OH2            22.1092912922      -11.5403963765      -29.1415241586  W2        1604            0.0000000000
      4811      1604  TIP3      H1             22.0645512922      -10.6010863765      -28.9628241586  W2        1604            0.0000000000
      4812      1604  TIP3      H2             21.2216112922      -11.7759063765      -29.4113141586  W2        1604            0.0000000000
      4813      1605  TIP3      OH2            35.4222512922       -0.8765063765      -19.2055641586  W2        1605            0.0000000000
      4814      1605  TIP3      H1             35.2666812922       -0.1980663765      -19.8626341586  W2        1605            0.0000000000
      4815      1605  TIP3      H2             36.3548912922       -0.8045763765      -19.0025041586  W2        1605            0.0000000000
      4816      1606  TIP3      OH2            22.9174912922      -16.7587363765      -20.4684241586  W2        1606            0.0000000000
      4817      1606  TIP3      H1             22.6884712922      -16.6994863765      -21.3959241586  W2        1606            0.0000000000
      4818      1606  TIP3      H2             22.4748312922      -17.5501863765      -20.1620141586  W2        1606            0.0000000000
      4819      1607  TIP3      OH2            21.8478212922       -2.8180263765      -24.3078441586  W2        1607            0.0000000000
      4820      1607  TIP3      H1             21.0156812922       -2.3457563765      -24.2807041586  W2        1607            0.0000000000
      4821      1607  TIP3      H2             22.3936512922       -2.3082663765      -24.9065341586  W2        1607            0.0000000000
      4822      1608  TIP3      OH2            21.1361912922       -0.2056563765      -12.9780441586  W2        1608            0.0000000000
      4823      1608  TIP3      H1             21.6764112922       -0.4222563765      -12.2181241586  W2        1608            0.0000000000
      4824      1608  TIP3      H2             20.6549912922       -1.0110563765      -13.1677941586  W2        1608            0.0000000000
      4825      1609  TIP3      OH2            25.7335312922       -1.2862163765      -11.3576241586  W2        1609            0.0000000000
      4826      1609  TIP3      H1             26.5012512922       -1.7451363765      -11.0167041586  W2        1609            0.0000000000
      4827      1609  TIP3      H2             25.7121512922       -1.5122363765      -12.2875041586  W2        1609            0.0000000000
      4828      1610  TIP3      OH2            29.8254912922       -1.7781563765      -29.9824441586  W2        1610            0.0000000000
      4829      1610  TIP3      H1             29.1815912922       -2.4092963765      -29.6610741586  W2        1610            0.0000000000
      4830      1610  TIP3      H2             30.5873212922       -2.3093563765      -30.2140941586  W2        1610            0.0000000000
      4831      1611  TIP3      OH2            32.3104012922       -2.9061063765      -12.6284741586  W2        1611            0.0000000000
      4832      1611  TIP3      H1             31.9593512922       -3.7628063765      -12.3854341586  W2        1611            0.0000000000
      4833      1611  TIP3      H2             33.0367212922       -2.7634363765      -12.0215741586  W2        1611            0.0000000000
      4834      1612  TIP3      OH2            34.4297812922       -1.9611663765      -29.7486441586  W2        1612            0.0000000000
      4835      1612  TIP3      H1             34.7128212922       -2.7556463765      -29.2959541586  W2        1612            0.0000000000
      4836      1612  TIP3      H2             35.1695712922       -1.7280663765      -30.3095341586  W2        1612            0.0000000000
      4837      1613  TIP3      OH2            21.0431412922       -6.3952463765      -12.0236141586  W2        1613            0.0000000000
      4838      1613  TIP3      H1             21.1871912922       -7.2971763765      -12.3099441586  W2        1613            0.0000000000
      4839      1613  TIP3      H2             20.2708812922       -6.1090363765      -12.5113841586  W2        1613            0.0000000000
      4840      1614  TIP3      OH2            25.3845112922       -6.0516763765      -29.8911541586  W2        1614            0.0000000000
      4841      1614  TIP3      H1             25.4489212922       -6.8457163765      -29.3605141586  W2        1614            0.0000000000
      4842      1614  TIP3      H2             26.0374312922       -6.1703963765      -30.5809541586  W2        1614            0.0000000000
      4843      1615  TIP3      OH2            27.6987512922       -6.4254363765      -12.5909741586  W2        1615            0.0000000000
      4844      1615  TIP3      H1             27.3701312922       -6.1546263765      -13.4482341586  W2        1615            0.0000000000
      4845      1615  TIP3      H2             27.8505712922       -7.3664563765      -12.6784741586  W2        1615            0.0000000000
      4846      1616  TIP3      OH2            30.7368512922       -5.0045063765      -30.1553541586  W2        1616            0.0000000000
      4847      1616  TIP3      H1             30.4682612922       -4.8242963765      -29.2544641586  W2        1616            0.0000000000
      4848      1616  TIP3      H2             30.5304112922       -5.9298863765      -30.2867741586  W2        1616            0.0000000000
      4849      1617  TIP3      OH2            33.4332712922       -6.5097063765      -15.2077441586  W2        1617            0.0000000000
      4850      1617  TIP3      H1             34.1787512922       -5.9213363765      -15.3273441586  W2        1617            0.0000000000
      4851      1617  TIP3      H2             32.6759512922       -5.9277363765      -15.1444341586  W2        1617            0.0000000000
      4852      1618  TIP3      OH2            21.8757912922       -9.1949163765      -12.6036841586  W2        1618            0.0000000000
      4853      1618  TIP3      H1             22.2839112922      -10.0522563765      -12.7246241586  W2        1618            0.0000000000
      4854      1618  TIP3      H2             21.6155512922       -9.1807863765      -11.6826541586  W2        1618            0.0000000000
      4855      1619  TIP3      OH2            26.5338912922       -8.0790563765      -27.5853541586  W2        1619            0.0000000000
      4856      1619  TIP3      H1             26.0740912922       -8.5632263765      -26.8995041586  W2        1619            0.0000000000
      4857      1619  TIP3      H2             26.7887612922       -8.7475163765      -28.2213041586  W2        1619            0.0000000000
      4858      1620  TIP3      OH2            25.8228212922      -10.1863463765      -15.2293941586  W2        1620            0.0000000000
      4859      1620  TIP3      H1             25.2044312922       -9.5116863765      -14.9489241586  W2        1620            0.0000000000
      4860      1620  TIP3      H2             26.1669412922       -9.8649563765      -16.0627741586  W2        1620            0.0000000000
      4861      1621  TIP3      OH2            27.6049312922       -9.8358763765      -29.3230341586  W2        1621            0.0000000000
      4862      1621  TIP3      H1             27.4244312922       -9.9907563765      -30.2502041586  W2        1621            0.0000000000
      4863      1621  TIP3      H2             28.5549812922       -9.7280063765      -29.2782441586  W2        1621            0.0000000000
      4864      1622  TIP3      OH2            30.8426412922       -7.7148163765      -11.9519141586  W2        1622            0.0000000000
      4865      1622  TIP3      H1             31.7957612922       -7.6309063765      -11.9793141586  W2        1622            0.0000000000
      4866      1622  TIP3      H2             30.6821012922       -8.4266363765      -11.3324241586  W2        1622            0.0000000000
      4867      1623  TIP3      OH2            26.1621912922      -12.8312663765      -14.1470841586  W2        1623            0.0000000000
      4868      1623  TIP3      H1             26.3122812922      -13.5601363765      -14.7491141586  W2        1623            0.0000000000
      4869      1623  TIP3      H2             26.1644312922      -12.0540963765      -14.7058641586  W2        1623            0.0000000000
      4870      1624  TIP3      OH2            26.5747612922      -14.4616863765      -16.6543441586  W2        1624            0.0000000000
      4871      1624  TIP3      H1             27.1105112922      -14.0100163765      -17.3064141586  W2        1624            0.0000000000
      4872      1624  TIP3      H2             25.7227212922      -14.5697063765      -17.0769341586  W2        1624            0.0000000000
      4873      1625  TIP3      OH2            28.1566012922       -9.0220663765      -16.4148241586  W2        1625            0.0000000000
      4874      1625  TIP3      H1             28.9070812922       -9.1783163765      -16.9880441586  W2        1625            0.0000000000
      4875      1625  TIP3      H2             27.8174312922       -8.1704063765      -16.6902741586  W2        1625            0.0000000000
      4876      1626  TIP3      OH2            32.5722212922      -11.2068863765      -11.3862941586  W2        1626            0.0000000000
      4877      1626  TIP3      H1             32.7643512922      -12.1379463765      -11.4978441586  W2        1626            0.0000000000
      4878      1626  TIP3      H2             33.4298512922      -10.7819363765      -11.3967541586  W2        1626            0.0000000000
      4879      1627  TIP3      OH2            33.8889412922       -8.4183663765      -13.3090241586  W2        1627            0.0000000000
      4880      1627  TIP3      H1             33.6074412922       -7.7089063765      -13.8866441586  W2        1627            0.0000000000
      4881      1627  TIP3      H2             34.8313712922       -8.4910663765      -13.4599041586  W2        1627            0.0000000000
      4882      1628  TIP3      OH2            24.6408212922      -11.6329163765      -12.2355241586  W2        1628            0.0000000000
      4883      1628  TIP3      H1             23.8737212922      -12.1654363765      -12.4457641586  W2        1628            0.0000000000
      4884      1628  TIP3      H2             25.3197212922      -11.9428763765      -12.8348941586  W2        1628            0.0000000000
      4885      1629  TIP3      OH2            27.3803112922      -17.0051163765      -16.2229841586  W2        1629            0.0000000000
      4886      1629  TIP3      H1             27.2822712922      -16.0587963765      -16.3283641586  W2        1629            0.0000000000
      4887      1629  TIP3      H2             26.6379312922      -17.3777363765      -16.6986341586  W2        1629            0.0000000000
      4888      1630  TIP3      OH2            28.6443612922      -12.6835763765      -12.6591441586  W2        1630            0.0000000000
      4889      1630  TIP3      H1             28.4089012922      -12.9029063765      -11.7576541586  W2        1630            0.0000000000
      4890      1630  TIP3      H2             27.8610512922      -12.8904563765      -13.1688941586  W2        1630            0.0000000000
      4891      1631  TIP3      OH2            31.3600212922      -13.5562263765      -13.5837941586  W2        1631            0.0000000000
      4892      1631  TIP3      H1             30.4125612922      -13.5242563765      -13.4514641586  W2        1631            0.0000000000
      4893      1631  TIP3      H2             31.6726912922      -14.1815163765      -12.9299741586  W2        1631            0.0000000000
      4894      1632  TIP3      OH2            32.9941712922      -14.9221163765      -11.5786041586  W2        1632            0.0000000000
      4895      1632  TIP3      H1             32.8973512922      -15.8743863765      -11.5844141586  W2        1632            0.0000000000
      4896      1632  TIP3      H2             32.6724812922      -14.6534363765      -10.7180541586  W2        1632            0.0000000000
      4897      1633  TIP3      OH2            22.8211012922      -13.7125363765      -12.5310541586  W2        1633            0.0000000000
      4898      1633  TIP3      H1             23.0328412922      -14.4189263765      -13.1413041586  W2        1633            0.0000000000
      4899      1633  TIP3      H2             22.7098512922      -14.1499363765      -11.6869341586  W2        1633            0.0000000000
      4900      1634  TIP3      OH2            27.6021212922      -17.7113763765      -13.5517041586  W2        1634            0.0000000000
      4901      1634  TIP3      H1             28.3139612922      -18.3511563765      -13.5657941586  W2        1634            0.0000000000
      4902      1634  TIP3      H2             27.5011612922      -17.4445463765      -14.4653941586  W2        1634            0.0000000000
      4903      1635  TIP3      OH2            27.9558712922      -16.0285363765      -11.4980741586  W2        1635            0.0000000000
      4904      1635  TIP3      H1             27.8240912922      -16.5041563765      -12.3182241586  W2        1635            0.0000000000
      4905      1635  TIP3      H2             27.3566112922      -15.2841763765      -11.5533641586  W2        1635            0.0000000000
      4906      1636  TIP3      OH2            27.5021012922        0.8544936235      -28.3216741586  W2        1636            0.0000000000
      4907      1636  TIP3      H1             28.4351712922        1.0123636235      -28.1778341586  W2        1636            0.0000000000
      4908      1636  TIP3      H2             27.2379812922        1.5297936235      -28.9465241586  W2        1636            0.0000000000
      4909      1637  TIP3      OH2            21.0705912922       -4.5091263765      -28.8388641586  W2        1637            0.0000000000
      4910      1637  TIP3      H1             21.9845112922       -4.4302363765      -28.5654741586  W2        1637            0.0000000000
      4911      1637  TIP3      H2             21.0779012922       -5.1961663765      -29.5053041586  W2        1637            0.0000000000
      4912      1638  TIP3      OH2            19.7196512922        0.8837236235      -23.7614741586  W2        1638            0.0000000000
      4913      1638  TIP3      H1             19.0723612922        0.4218936235      -24.2943541586  W2        1638            0.0000000000
      4914      1638  TIP3      H2             20.0741112922        0.2120536235      -23.1788541586  W2        1638            0.0000000000
      4915      1639  TIP3      OH2            20.5895712922       -1.0355763765      -21.9568541586  W2        1639            0.0000000000
      4916      1639  TIP3      H1             20.2552512922       -1.9158463765      -21.7848341586  W2        1639            0.0000000000
      4917      1639  TIP3      H2             20.8118112922       -0.6900763765      -21.0922941586  W2        1639            0.0000000000
      4918      1640  TIP3      OH2            36.1520712922       -4.8690163765      -11.4164341586  W2        1640            0.0000000000
      4919      1640  TIP3      H1             35.2861812922       -4.9740463765      -11.0222041586  W2        1640            0.0000000000
      4920      1640  TIP3      H2             36.5286612922       -4.1106863765      -10.9699641586  W2        1640            0.0000000000
      4921      1641  TIP3      OH2            36.0929512922       -2.8964063765      -16.8240141586  W2        1641            0.0000000000
      4922      1641  TIP3      H1             35.4454812922       -2.5712563765      -16.1984941586  W2        1641            0.0000000000
      4923      1641  TIP3      H2             35.5753512922       -3.3366363765      -17.4981841586  W2        1641            0.0000000000
      4924      1642  TIP3      OH2            36.4648112922      -11.4184963765      -29.1367741586  W2        1642            0.0000000000
      4925      1642  TIP3      H1             36.5612512922      -10.7517963765      -29.8168041586  W2        1642            0.0000000000
      4926      1642  TIP3      H2             36.3247712922      -12.2338663765      -29.6182241586  W2        1642            0.0000000000
      4927      1643  TIP3      OH2            35.6342812922      -10.0382563765      -23.5157441586  W2        1643            0.0000000000
      4928      1643  TIP3      H1             35.4841612922      -10.9833963765      -23.5359641586  W2        1643            0.0000000000
      4929      1643  TIP3      H2             35.2807312922       -9.7571163765      -22.6718341586  W2        1643            0.0000000000
      4930      1644  TIP3      OH2            20.6695212922       -7.9600363765      -19.5053641586  W2        1644            0.0000000000
      4931      1644  TIP3      H1             20.8538112922       -8.0418663765      -20.4410741586  W2        1644            0.0000000000
      4932      1644  TIP3      H2             21.5188112922       -8.0843363765      -19.0817241586  W2        1644            0.0000000000
      4933      1645  TIP3      OH2            36.4905712922       -8.0679263765      -13.8769141586  W2        1645            0.0000000000
      4934      1645  TIP3      H1             37.0733012922       -8.8026963765      -13.6851941586  W2        1645            0.0000000000
      4935      1645  TIP3      H2             37.0545012922       -7.2958963765      -13.8303341586  W2        1645            0.0000000000
      4936      1646  TIP3      OH2            35.7121912922      -14.0105163765      -30.0192241586  W2        1646            0.0000000000
      4937      1646  TIP3      H1             36.3227712922      -14.3818363765      -29.3824041586  W2        1646            0.0000000000
      4938      1646  TIP3      H2             34.8753412922      -14.4318263765      -29.8232241586  W2        1646            0.0000000000
      4939      1647  TIP3      OH2            35.3447612922      -12.4556763765      -25.0532341586  W2        1647            0.0000000000
      4940      1647  TIP3      H1             35.6244712922      -13.3626363765      -24.9290641586  W2        1647            0.0000000000
      4941      1647  TIP3      H2             36.1039312922      -12.0215263765      -25.4423141586  W2        1647            0.0000000000
      4942      1648  TIP3      OH2            35.9565912922      -11.8739363765      -19.6173441586  W2        1648            0.0000000000
      4943      1648  TIP3      H1             36.8893912922      -11.6619463765      -19.6517441586  W2        1648            0.0000000000
      4944      1648  TIP3      H2             35.7213412922      -11.7727263765      -18.6950441586  W2        1648            0.0000000000
      4945      1649  TIP3      OH2            35.9857812922      -11.1374063765      -16.8414041586  W2        1649            0.0000000000
      4946      1649  TIP3      H1             35.1429112922      -10.8693663765      -16.4754241586  W2        1649            0.0000000000
      4947      1649  TIP3      H2             36.4282112922      -10.3152163765      -17.0522941586  W2        1649            0.0000000000
      4948      1650  TIP3      OH2            20.2670012922      -12.6895363765      -13.3644841586  W2        1650            0.0000000000
      4949      1650  TIP3      H1             21.1864912922      -12.8117063765      -13.1281741586  W2        1650            0.0000000000
      4950      1650  TIP3      H2             19.8174512922      -13.4395663765      -12.9751341586  W2        1650            0.0000000000
      4951      1651  TIP3      OH2            35.9582412922      -15.1927463765      -25.0050341586  W2        1651            0.0000000000
      4952      1651  TIP3      H1             36.1407412922      -15.6415963765      -24.1795341586  W2        1651            0.0000000000
      4953      1651  TIP3      H2             35.3585312922      -15.7773063765      -25.4685741586  W2        1651            0.0000000000
      4954      1652  TIP3      OH2            21.4882512922      -14.3773763765      -20.4731941586  W2        1652            0.0000000000
      4955      1652  TIP3      H1             21.9334112922      -15.1691263765      -20.1712241586  W2        1652            0.0000000000
      4956      1652  TIP3      H2             21.9545512922      -13.6608563765      -20.0426341586  W2        1652            0.0000000000
      4957      1653  TIP3      OH2            19.7922812922      -11.3780763765      -19.4041741586  W2        1653            0.0000000000
      4958      1653  TIP3      H1             20.2842612922      -11.5990263765      -20.1949741586  W2        1653            0.0000000000
      4959      1653  TIP3      H2             20.1543712922      -10.5377363765      -19.1232241586  W2        1653            0.0000000000
      4960      1654  TIP3      OH2            20.1059312922      -15.1201663765      -25.3499341586  W2        1654            0.0000000000
      4961      1654  TIP3      H1             19.1807712922      -14.9115063765      -25.4793841586  W2        1654            0.0000000000
      4962      1654  TIP3      H2             20.5599212922      -14.6360863765      -26.0397041586  W2        1654            0.0000000000
      4963      1655  TIP3      OH2            34.8766512922       -0.1359963765      -23.4041941586  W2        1655            0.0000000000
      4964      1655  TIP3      H1             35.5289412922       -0.4837863765      -24.0122841586  W2        1655            0.0000000000
      4965      1655  TIP3      H2             35.3870312922        0.3523236235      -22.7582241586  W2        1655            0.0000000000
      4966      1656  TIP3      OH2            20.0694712922      -16.3822663765      -17.0056841586  W2        1656            0.0000000000
      4967      1656  TIP3      H1             19.4045212922      -16.6282363765      -16.3625941586  W2        1656            0.0000000000
      4968      1656  TIP3      H2             19.6266012922      -15.7602263765      -17.5828841586  W2        1656            0.0000000000
      4969      1657  TIP3      OH2            22.2614012922       -3.2068563765      -12.8611041586  W2        1657            0.0000000000
      4970      1657  TIP3      H1             21.4406512922       -3.0322063765      -13.3216341586  W2        1657            0.0000000000
      4971      1657  TIP3      H2             22.0091812922       -3.2803863765      -11.9406641586  W2        1657            0.0000000000
      4972      1658  TIP3      OH2            25.2156912922       -2.2327363765      -16.6027041586  W2        1658            0.0000000000
      4973      1658  TIP3      H1             24.7908012922       -1.4228863765      -16.8852441586  W2        1658            0.0000000000
      4974      1658  TIP3      H2             26.1199712922       -2.1473263765      -16.9047241586  W2        1658            0.0000000000
      4975      1659  TIP3      OH2            29.5268312922       -0.8337363765      -13.6433341586  W2        1659            0.0000000000
      4976      1659  TIP3      H1             29.7115812922       -1.1671263765      -12.7653041586  W2        1659            0.0000000000
      4977      1659  TIP3      H2             30.3732812922       -0.5238763765      -13.9654141586  W2        1659            0.0000000000
      4978      1660  TIP3      OH2            31.8718712922        0.4521536235      -14.3991941586  W2        1660            0.0000000000
      4979      1660  TIP3      H1             32.5487612922       -0.1806163765      -14.6392741586  W2        1660            0.0000000000
      4980      1660  TIP3      H2             32.1937512922        0.8532036235      -13.5918641586  W2        1660            0.0000000000
      4981      1661  TIP3      OH2            22.6173612922        1.0236536235      -16.5551741586  W2        1661            0.0000000000
      4982      1661  TIP3      H1             21.8970012922        1.4637536235      -17.0064041586  W2        1661            0.0000000000
      4983      1661  TIP3      H2             22.2517612922        0.7731236235      -15.7067741586  W2        1661            0.0000000000
      4984      1662  TIP3      OH2            25.0846212922        0.6240436235      -17.5254541586  W2        1662            0.0000000000
      4985      1662  TIP3      H1             24.2198412922        0.6958936235      -17.1214441586  W2        1662            0.0000000000
      4986      1662  TIP3      H2             25.0295212922        1.1707736235      -18.3092041586  W2        1662            0.0000000000
      4987      1663  TIP3      OH2            29.7951812922        0.5119336235      -18.3498541586  W2        1663            0.0000000000
      4988      1663  TIP3      H1             29.3385812922        1.0409036235      -19.0040141586  W2        1663            0.0000000000
      4989      1663  TIP3      H2             29.9579812922        1.1150736235      -17.6246241586  W2        1663            0.0000000000
      4990      1664  TIP3      OH2            32.1228112922       -0.6101063765      -17.4048241586  W2        1664            0.0000000000
      4991      1664  TIP3      H1             31.2181812922       -0.4450863765      -17.6706141586  W2        1664            0.0000000000
      4992      1664  TIP3      H2             32.5516712922        0.2431136235      -17.4704841586  W2        1664            0.0000000000
      4993      1665  TIP3      OH2            34.7270012922        0.9598036235      -17.1100441586  W2        1665            0.0000000000
      4994      1665  TIP3      H1             34.5452012922        1.8756936235      -17.3205541586  W2        1665            0.0000000000
      4995      1665  TIP3      H2             34.9037812922        0.5495136235      -17.9565841586  W2        1665            0.0000000000
      4996      1666  TIP3      OH2            22.0321712922       -0.3530963765      -19.6449941586  W2        1666            0.0000000000
      4997      1666  TIP3      H1             22.0137712922       -0.7785863765      -18.7877641586  W2        1666            0.0000000000
      4998      1666  TIP3      H2             22.8369612922       -0.6715963765      -20.0537741586  W2        1666            0.0000000000
      4999      1667  TIP3      OH2            24.1734812922       -1.6432263765      -20.9900041586  W2        1667            0.0000000000
      5000      1667  TIP3      H1             23.9545512922       -2.5594863765      -20.8204041586  W2        1667            0.0000000000
      5001      1667  TIP3      H2             24.9977012922       -1.5031863765      -20.5238641586  W2        1667            0.0000000000
      5002      1668  TIP3      OH2            26.7107312922       -1.1732963765      -20.1412041586  W2        1668            0.0000000000
      5003      1668  TIP3      H1             26.9233012922       -2.0613963765      -20.4281141586  W2        1668            0.0000000000
      5004      1668  TIP3      H2             26.7752412922       -1.2075263765      -19.1868041586  W2        1668            0.0000000000
      5005      1669  TIP3      OH2            30.2191012922      -15.5092363765      -20.9968741586  W2        1669            0.0000000000
      5006      1669  TIP3      H1             29.5447812922      -16.1386763765      -20.7412941586  W2        1669            0.0000000000
      5007      1669  TIP3      H2             30.7830212922      -15.9933463765      -21.6000841586  W2        1669            0.0000000000
      5008      1670  TIP3      OH2            35.3618212922      -17.4018363765      -20.8841641586  W2        1670            0.0000000000
      5009      1670  TIP3      H1             35.9655812922      -16.8542963765      -21.3860641586  W2        1670            0.0000000000
      5010      1670  TIP3      H2             34.4920212922      -17.0827963765      -21.1247541586  W2        1670            0.0000000000
      5011      1671  TIP3      OH2            22.5458512922      -16.8752063765      -23.1748841586  W2        1671            0.0000000000
      5012      1671  TIP3      H1             21.7688312922      -17.1097163765      -23.6822941586  W2        1671            0.0000000000
      5013      1671  TIP3      H2             23.0762112922      -17.6719963765      -23.1660841586  W2        1671            0.0000000000
      5014      1672  TIP3      OH2            21.3821912922      -17.0773963765      -27.3712741586  W2        1672            0.0000000000
      5015      1672  TIP3      H1             21.8212612922      -16.4663463765      -27.9629241586  W2        1672            0.0000000000
      5016      1672  TIP3      H2             20.7484312922      -16.5389863765      -26.8972741586  W2        1672            0.0000000000
      5017      1673  TIP3      OH2            27.1251112922      -16.9484963765      -23.3615741586  W2        1673            0.0000000000
      5018      1673  TIP3      H1             27.9994512922      -16.5600663765      -23.3911441586  W2        1673            0.0000000000
      5019      1673  TIP3      H2             26.9891912922      -17.1637163765      -22.4388541586  W2        1673            0.0000000000
      5020      1674  TIP3      OH2            32.6819512922      -16.9185163765      -21.7124041586  W2        1674            0.0000000000
      5021      1674  TIP3      H1             32.7581112922      -16.8233563765      -22.6618041586  W2        1674            0.0000000000
      5022      1674  TIP3      H2             32.4068712922      -17.8262263765      -21.5834941586  W2        1674            0.0000000000
      5023      1675  TIP3      OH2            34.0352112922      -16.8927363765      -26.0199041586  W2        1675            0.0000000000
      5024      1675  TIP3      H1             33.3323212922      -16.2778163765      -26.2297641586  W2        1675            0.0000000000
      5025      1675  TIP3      H2             33.5903512922      -17.7300663765      -25.8888141586  W2        1675            0.0000000000
      5026      1676  TIP3      OH2            21.2831412922       -1.1291763765      -26.4737641586  W2        1676            0.0000000000
      5027      1676  TIP3      H1             20.5981312922       -1.1672863765      -27.1412541586  W2        1676            0.0000000000
      5028      1676  TIP3      H2             21.2868612922       -0.2164163765      -26.1855541586  W2        1676            0.0000000000
      5029      1677  TIP3      OH2            23.2431012922      -15.1612463765      -28.9288641586  W2        1677            0.0000000000
      5030      1677  TIP3      H1             23.7344412922      -15.7910063765      -29.4563141586  W2        1677            0.0000000000
      5031      1677  TIP3      H2             23.8667312922      -14.8653063765      -28.2657441586  W2        1677            0.0000000000
      5032      1678  TIP3      OH2            28.2691112922      -14.8680963765      -26.4718141586  W2        1678            0.0000000000
      5033      1678  TIP3      H1             28.4472412922      -15.5147763765      -25.7889541586  W2        1678            0.0000000000
      5034      1678  TIP3      H2             28.2157312922      -14.0343263765      -26.0047041586  W2        1678            0.0000000000
      5035      1679  TIP3      OH2            30.1474912922        0.0803136235      -28.0761441586  W2        1679            0.0000000000
      5036      1679  TIP3      H1             31.0135112922        0.4470536235      -28.2543241586  W2        1679            0.0000000000
      5037      1679  TIP3      H2             29.9007712922       -0.3588863765      -28.8900641586  W2        1679            0.0000000000
      5038      1680  TIP3      OH2            22.5036512922      -16.3610163765      -13.6572641586  W2        1680            0.0000000000
      5039      1680  TIP3      H1             22.1374712922      -17.1267563765      -13.2147941586  W2        1680            0.0000000000
      5040      1680  TIP3      H2             23.4165012922      -16.3319963765      -13.3707541586  W2        1680            0.0000000000
      5041      1681  TIP3      OH2            24.4767312922      -17.0105763765      -12.1215541586  W2        1681            0.0000000000
      5042      1681  TIP3      H1             25.3750912922      -17.2845563765      -12.3062141586  W2        1681            0.0000000000
      5043      1681  TIP3      H2             24.0900412922      -17.7529763765      -11.6572941586  W2        1681            0.0000000000
      5044      1682  TIP3      OH2            23.1012612922       -0.2090963765      -29.4485541586  W2        1682            0.0000000000
      5045      1682  TIP3      H1             22.8337212922        0.0771936235      -28.5752441586  W2        1682            0.0000000000
      5046      1682  TIP3      H2             23.8725212922       -0.7551763765      -29.2963041586  W2        1682            0.0000000000
      5047      1683  TIP3      OH2            32.8979612922      -17.6780463765      -11.9392741586  W2        1683            0.0000000000
      5048      1683  TIP3      H1             32.9746812922      -18.1039763765      -11.0855041586  W2        1683            0.0000000000
      5049      1683  TIP3      H2             33.7916212922      -17.6645763765      -12.2819241586  W2        1683            0.0000000000
      5050      1684  TIP3      OH2            36.0740712922       -1.6054163765      -13.2468541586  W2        1684            0.0000000000
      5051      1684  TIP3      H1             35.2922612922       -1.7916163765      -13.7667941586  W2        1684            0.0000000000
      5052      1684  TIP3      H2             36.0020612922       -0.6759863765      -13.0296041586  W2        1684            0.0000000000
      5053      1685  TIP3      OH2           -24.9438887078       11.1370236235      -23.2161341586  W2        1685            0.0000000000
      5054      1685  TIP3      H1            -24.8547787078       12.0808436235      -23.3484241586  W2        1685            0.0000000000
      5055      1685  TIP3      H2            -25.5821287078       10.8616636235      -23.8741941586  W2        1685            0.0000000000
      5056      1686  TIP3      OH2           -26.0107587078       10.3920936235      -19.7973141586  W2        1686            0.0000000000
      5057      1686  TIP3      H1            -26.0490087078        9.7457236235      -19.0923541586  W2        1686            0.0000000000
      5058      1686  TIP3      H2            -26.3331087078        9.9255336235      -20.5684441586  W2        1686            0.0000000000
      5059      1687  TIP3      OH2           -33.6422587078       10.0063036235      -18.2043241586  W2        1687            0.0000000000
      5060      1687  TIP3      H1            -33.6010487078        9.3806336235      -17.4810841586  W2        1687            0.0000000000
      5061      1687  TIP3      H2            -32.9394887078       10.6301636235      -18.0222841586  W2        1687            0.0000000000
      5062      1688  TIP3      OH2           -22.3047387078       13.3311336235      -21.4958041586  W2        1688            0.0000000000
      5063      1688  TIP3      H1            -22.7454687078       12.6107336235      -21.0452441586  W2        1688            0.0000000000
      5064      1688  TIP3      H2            -22.3177687078       14.0518536235      -20.8660341586  W2        1688            0.0000000000
      5065      1689  TIP3      OH2           -32.7189487078       14.4561936235      -19.6694141586  W2        1689            0.0000000000
      5066      1689  TIP3      H1            -33.0884287078       13.6542436235      -20.0389841586  W2        1689            0.0000000000
      5067      1689  TIP3      H2            -31.7778387078       14.2876836235      -19.6230741586  W2        1689            0.0000000000
      5068      1690  TIP3      OH2           -36.1088987078        8.1164536235      -24.2765341586  W2        1690            0.0000000000
      5069      1690  TIP3      H1            -36.5565587078        8.9623236235      -24.2948841586  W2        1690            0.0000000000
      5070      1690  TIP3      H2            -36.6697787078        7.5368736235      -24.7920241586  W2        1690            0.0000000000
      5071      1691  TIP3      OH2           -35.3982887078       10.2784136235      -22.1507341586  W2        1691            0.0000000000
      5072      1691  TIP3      H1            -35.1849387078        9.5085736235      -21.6234341586  W2        1691            0.0000000000
      5073      1691  TIP3      H2            -34.6605287078       10.3680836235      -22.7539741586  W2        1691            0.0000000000
      5074      1692  TIP3      OH2           -25.1931887078       18.4353036235      -21.2837641586  W2        1692            0.0000000000
      5075      1692  TIP3      H1            -24.5735487078       17.7587736235      -21.5568441586  W2        1692            0.0000000000
      5076      1692  TIP3      H2            -25.4014487078       18.2173836235      -20.3752741586  W2        1692            0.0000000000
      5077      1693  TIP3      OH2           -27.6213187078       12.8242336235      -19.3912141586  W2        1693            0.0000000000
      5078      1693  TIP3      H1            -27.3175287078       12.1383736235      -19.9858041586  W2        1693            0.0000000000
      5079      1693  TIP3      H2            -26.8999187078       12.9431036235      -18.7734141586  W2        1693            0.0000000000
      5080      1694  TIP3      OH2           -18.9583387078        4.4257636235      -18.5305941586  W2        1694            0.0000000000
      5081      1694  TIP3      H1            -18.9091187078        5.0358836235      -17.7946841586  W2        1694            0.0000000000
      5082      1694  TIP3      H2            -18.5328287078        4.8868536235      -19.2534841586  W2        1694            0.0000000000
      5083      1695  TIP3      OH2           -24.4806187078        7.2184736235      -19.0637341586  W2        1695            0.0000000000
      5084      1695  TIP3      H1            -24.3380287078        6.2721736235      -19.0435741586  W2        1695            0.0000000000
      5085      1695  TIP3      H2            -24.5867187078        7.4254536235      -19.9922441586  W2        1695            0.0000000000
      5086      1696  TIP3      OH2           -31.3257887078        5.3201136235      -21.7912541586  W2        1696            0.0000000000
      5087      1696  TIP3      H1            -31.2826787078        6.1799636235      -22.2096241586  W2        1696            0.0000000000
      5088      1696  TIP3      H2            -31.7833787078        4.7675836235      -22.4249341586  W2        1696            0.0000000000
      5089      1697  TIP3      OH2           -23.6035187078        5.4506736235      -23.3904241586  W2        1697            0.0000000000
      5090      1697  TIP3      H1            -22.9570887078        5.1219936235      -22.7656641586  W2        1697            0.0000000000
      5091      1697  TIP3      H2            -23.0935787078        5.9685736235      -24.0132841586  W2        1697            0.0000000000
      5092      1698  TIP3      OH2           -34.7056387078        7.7166936235      -21.0291141586  W2        1698            0.0000000000
      5093      1698  TIP3      H1            -34.0519787078        7.1668636235      -20.5971041586  W2        1698            0.0000000000
      5094      1698  TIP3      H2            -34.6817087078        7.4425936235      -21.9459141586  W2        1698            0.0000000000
      5095      1699  TIP3      OH2           -29.5491887078        9.2668236235      -21.8139641586  W2        1699            0.0000000000
      5096      1699  TIP3      H1            -28.9330887078        8.7403636235      -21.3045641586  W2        1699            0.0000000000
      5097      1699  TIP3      H2            -30.1353087078        8.6266936235      -22.2176041586  W2        1699            0.0000000000
      5098      1700  TIP3      OH2           -18.5668787078        5.9036836235      -16.2946141586  W2        1700            0.0000000000
      5099      1700  TIP3      H1            -19.2554187078        6.5617536235      -16.3899541586  W2        1700            0.0000000000
      5100      1700  TIP3      H2            -18.5514187078        5.7064736235      -15.3580741586  W2        1700            0.0000000000
      5101      1701  TIP3      OH2           -32.5155987078        4.2379536235      -17.7171741586  W2        1701            0.0000000000
      5102      1701  TIP3      H1            -32.7344287078        4.7680136235      -18.4835741586  W2        1701            0.0000000000
      5103      1701  TIP3      H2            -33.1835087078        4.4645036235      -17.0700341586  W2        1701            0.0000000000
      5104      1702  TIP3      OH2           -25.1466187078       13.7380636235      -24.1732641586  W2        1702            0.0000000000
      5105      1702  TIP3      H1            -25.4421087078       13.4152936235      -25.0245741586  W2        1702            0.0000000000
      5106      1702  TIP3      H2            -25.4708387078       14.6377336235      -24.1320041586  W2        1702            0.0000000000
      5107      1703  TIP3      OH2           -29.9464587078       11.9135236235      -17.4298041586  W2        1703            0.0000000000
      5108      1703  TIP3      H1            -30.6865487078       12.5116736235      -17.3262841586  W2        1703            0.0000000000
      5109      1703  TIP3      H2            -29.2325087078       12.4674836235      -17.7454441586  W2        1703            0.0000000000
      5110      1704  TIP3      OH2           -21.8396787078        4.7416036235      -21.4098341586  W2        1704            0.0000000000
      5111      1704  TIP3      H1            -22.0548787078        3.9759436235      -20.8772341586  W2        1704            0.0000000000
      5112      1704  TIP3      H2            -21.1839387078        5.2140636235      -20.8969841586  W2        1704            0.0000000000
      5113      1705  TIP3      OH2           -32.9218687078        6.1301336235      -19.7649541586  W2        1705            0.0000000000
      5114      1705  TIP3      H1            -32.3082387078        6.7628936235      -19.3917141586  W2        1705            0.0000000000
      5115      1705  TIP3      H2            -32.4097987078        5.6576336235      -20.4212641586  W2        1705            0.0000000000
      5116      1706  TIP3      OH2           -31.5390287078       13.8778236235      -16.6426541586  W2        1706            0.0000000000
      5117      1706  TIP3      H1            -31.5442687078       14.7571736235      -17.0207241586  W2        1706            0.0000000000
      5118      1706  TIP3      H2            -32.3926187078       13.7942336235      -16.2176641586  W2        1706            0.0000000000
      5119      1707  TIP3      OH2           -35.4179387078       13.5486136235      -25.8607241586  W2        1707            0.0000000000
      5120      1707  TIP3      H1            -35.6898487078       13.7777136235      -26.7494341586  W2        1707            0.0000000000
      5121      1707  TIP3      H2            -35.3723687078       14.3864936235      -25.4001941586  W2        1707            0.0000000000
      5122      1708  TIP3      OH2           -21.7929687078       15.1702036235      -19.1478741586  W2        1708            0.0000000000
      5123      1708  TIP3      H1            -22.7345987078       15.2285936235      -18.9861841586  W2        1708            0.0000000000
      5124      1708  TIP3      H2            -21.5163587078       16.0762536235      -19.2849041586  W2        1708            0.0000000000
      5125      1709  TIP3      OH2           -21.4922687078        3.4567336235      -17.7304841586  W2        1709            0.0000000000
      5126      1709  TIP3      H1            -22.2283487078        4.0674436235      -17.7683541586  W2        1709            0.0000000000
      5127      1709  TIP3      H2            -20.8088687078        3.8716336235      -18.2568441586  W2        1709            0.0000000000
      5128      1710  TIP3      OH2           -28.4891287078        1.5434636235      -20.2646841586  W2        1710            0.0000000000
      5129      1710  TIP3      H1            -28.6067087078        0.5950636235      -20.3188541586  W2        1710            0.0000000000
      5130      1710  TIP3      H2            -29.3441187078        1.8760736235      -19.9915741586  W2        1710            0.0000000000
      5131      1711  TIP3      OH2           -23.5408487078       16.9515536235      -22.5227141586  W2        1711            0.0000000000
      5132      1711  TIP3      H1            -23.1156187078       16.2443436235      -23.0077541586  W2        1711            0.0000000000
      5133      1711  TIP3      H2            -23.2238487078       17.7528236235      -22.9394941586  W2        1711            0.0000000000
      5134      1712  TIP3      OH2           -22.3811987078       14.8524036235      -24.0140541586  W2        1712            0.0000000000
      5135      1712  TIP3      H1            -22.6387187078       14.1624136235      -24.6254641586  W2        1712            0.0000000000
      5136      1712  TIP3      H2            -22.3101187078       14.4095236235      -23.1684641586  W2        1712            0.0000000000
      5137      1713  TIP3      OH2           -20.6951787078       13.4190736235      -15.5367041586  W2        1713            0.0000000000
      5138      1713  TIP3      H1            -20.5555487078       12.8273236235      -16.2760041586  W2        1713            0.0000000000
      5139      1713  TIP3      H2            -20.5278987078       14.2916636235      -15.8928241586  W2        1713            0.0000000000
      5140      1714  TIP3      OH2           -26.2226387078       10.3810236235      -25.7641041586  W2        1714            0.0000000000
      5141      1714  TIP3      H1            -26.9340887078       10.9159936235      -26.1160541586  W2        1714            0.0000000000
      5142      1714  TIP3      H2            -25.5316787078       10.4362336235      -26.4242141586  W2        1714            0.0000000000
      5143      1715  TIP3      OH2           -26.1687187078        8.8384536235      -28.7256041586  W2        1715            0.0000000000
      5144      1715  TIP3      H1            -25.4677287078        8.8611436235      -28.0742041586  W2        1715            0.0000000000
      5145      1715  TIP3      H2            -25.8664287078        8.2104236235      -29.3816741586  W2        1715            0.0000000000
      5146      1716  TIP3      OH2           -18.8532487078        9.7588736235      -17.4706641586  W2        1716            0.0000000000
      5147      1716  TIP3      H1            -19.5058387078       10.4534336235      -17.3815741586  W2        1716            0.0000000000
      5148      1716  TIP3      H2            -18.3882187078        9.9689636235      -18.2805041586  W2        1716            0.0000000000
      5149      1717  TIP3      OH2           -22.8168687078       10.5903536235      -24.8125141586  W2        1717            0.0000000000
      5150      1717  TIP3      H1            -23.5487687078       10.8187236235      -24.2394541586  W2        1717            0.0000000000
      5151      1717  TIP3      H2            -22.3696487078        9.8766236235      -24.3577641586  W2        1717            0.0000000000
      5152      1718  TIP3      OH2           -22.9195187078        8.7646136235      -15.7448141586  W2        1718            0.0000000000
      5153      1718  TIP3      H1            -22.8396087078        9.5280536235      -15.1729641586  W2        1718            0.0000000000
      5154      1718  TIP3      H2            -23.5207487078        9.0438536235      -16.4353041586  W2        1718            0.0000000000
      5155      1719  TIP3      OH2           -31.1714987078       11.2209736235      -22.9300141586  W2        1719            0.0000000000
      5156      1719  TIP3      H1            -31.5019787078       10.8503136235      -23.7483141586  W2        1719            0.0000000000
      5157      1719  TIP3      H2            -30.5830887078       10.5503736235      -22.5831841586  W2        1719            0.0000000000
      5158      1720  TIP3      OH2           -29.8047487078       14.6490336235      -20.2487941586  W2        1720            0.0000000000
      5159      1720  TIP3      H1            -29.8996187078       14.0703436235      -21.0053341586  W2        1720            0.0000000000
      5160      1720  TIP3      H2            -29.0753887078       14.2776036235      -19.7525141586  W2        1720            0.0000000000
      5161      1721  TIP3      OH2           -30.8049487078        9.9895336235      -19.2965141586  W2        1721            0.0000000000
      5162      1721  TIP3      H1            -30.2396987078       10.1109536235      -20.0593941586  W2        1721            0.0000000000
      5163      1721  TIP3      H2            -30.4860587078       10.6270336235      -18.6576641586  W2        1721            0.0000000000
      5164      1722  TIP3      OH2           -24.4957287078       15.4927236235      -18.5624641586  W2        1722            0.0000000000
      5165      1722  TIP3      H1            -24.7360687078       16.1550336235      -17.9145441586  W2        1722            0.0000000000
      5166      1722  TIP3      H2            -24.6939087078       14.6582436235      -18.1375041586  W2        1722            0.0000000000
      5167      1723  TIP3      OH2           -29.9248787078       14.3888036235      -14.5793241586  W2        1723            0.0000000000
      5168      1723  TIP3      H1            -30.2361287078       15.1711236235      -14.1240041586  W2        1723            0.0000000000
      5169      1723  TIP3      H2            -30.5748587078       14.2357136235      -15.2651241586  W2        1723            0.0000000000
      5170      1724  TIP3      OH2           -23.9459187078        9.7526436235      -27.1273941586  W2        1724            0.0000000000
      5171      1724  TIP3      H1            -23.3663687078        9.9026736235      -26.3805041586  W2        1724            0.0000000000
      5172      1724  TIP3      H2            -23.5319187078       10.2233836235      -27.8507541586  W2        1724            0.0000000000
      5173      1725  TIP3      OH2           -33.0048887078       10.5869136235      -15.3507541586  W2        1725            0.0000000000
      5174      1725  TIP3      H1            -32.9345687078       11.2375936235      -14.6522541586  W2        1725            0.0000000000
      5175      1725  TIP3      H2            -33.8956687078       10.6896636235      -15.6856641586  W2        1725            0.0000000000
      5176      1726  TIP3      OH2           -26.2194287078       16.4894936235      -23.6920841586  W2        1726            0.0000000000
      5177      1726  TIP3      H1            -25.7456687078       16.7851236235      -22.9146641586  W2        1726            0.0000000000
      5178      1726  TIP3      H2            -26.7824987078       17.2276536235      -23.9251241586  W2        1726            0.0000000000
      5179      1727  TIP3      OH2           -31.6852887078       16.4603036235      -13.8159441586  W2        1727            0.0000000000
      5180      1727  TIP3      H1            -31.6777587078       16.3242736235      -14.7633941586  W2        1727            0.0000000000
      5181      1727  TIP3      H2            -32.6012487078       16.3431136235      -13.5639441586  W2        1727            0.0000000000
      5182      1728  TIP3      OH2           -20.2470787078        1.5026836235      -27.3144241586  W2        1728            0.0000000000
      5183      1728  TIP3      H1            -21.1470087078        1.6415836235      -27.0193641586  W2        1728            0.0000000000
      5184      1728  TIP3      H2            -19.9952387078        2.3341436235      -27.7162541586  W2        1728            0.0000000000
      5185      1729  TIP3      OH2           -32.1812287078       10.2904036235      -25.3407341586  W2        1729            0.0000000000
      5186      1729  TIP3      H1            -32.4730987078       11.0585736235      -25.8316041586  W2        1729            0.0000000000
      5187      1729  TIP3      H2            -32.8557087078        9.6310236235      -25.5035941586  W2        1729            0.0000000000
      5188      1730  TIP3      OH2           -19.0579387078       15.8689236235      -28.9380341586  W2        1730            0.0000000000
      5189      1730  TIP3      H1            -18.9845887078       16.8079436235      -28.7675041586  W2        1730            0.0000000000
      5190      1730  TIP3      H2            -18.1524287078       15.5637836235      -28.9943041586  W2        1730            0.0000000000
      5191      1731  TIP3      OH2           -36.0882187078       12.6533236235      -16.5257541586  W2        1731            0.0000000000
      5192      1731  TIP3      H1            -36.5893787078       12.6252636235      -17.3407841586  W2        1731            0.0000000000
      5193      1731  TIP3      H2            -36.0828487078       11.7476436235      -16.2160241586  W2        1731            0.0000000000
      5194      1732  TIP3      OH2           -36.3379487078       15.4337036235      -19.6417341586  W2        1732            0.0000000000
      5195      1732  TIP3      H1            -35.3918887078       15.2894036235      -19.6607841586  W2        1732            0.0000000000
      5196      1732  TIP3      H2            -36.4503187078       16.2179836235      -19.1046141586  W2        1732            0.0000000000
      5197      1733  TIP3      OH2           -18.1400987078       16.0996736235      -13.9593641586  W2        1733            0.0000000000
      5198      1733  TIP3      H1            -18.1894187078       15.1444836235      -13.9966041586  W2        1733            0.0000000000
      5199      1733  TIP3      H2            -18.9668687078       16.3672036235      -13.5579841586  W2        1733            0.0000000000
      5200      1734  TIP3      OH2           -27.1616987078       15.6735936235      -15.0832241586  W2        1734            0.0000000000
      5201      1734  TIP3      H1            -27.0742387078       16.5000536235      -14.6083141586  W2        1734            0.0000000000
      5202      1734  TIP3      H2            -28.0251887078       15.3439736235      -14.8342941586  W2        1734            0.0000000000
      5203      1735  TIP3      OH2           -26.7471187078       19.4459636235      -25.2771641586  W2        1735            0.0000000000
      5204      1735  TIP3      H1            -26.8225187078       19.3246836235      -26.2236441586  W2        1735            0.0000000000
      5205      1735  TIP3      H2            -26.7142487078       20.3952336235      -25.1587041586  W2        1735            0.0000000000
      5206      1736  TIP3      OH2           -33.0937387078       18.2346636235      -23.4962641586  W2        1736            0.0000000000
      5207      1736  TIP3      H1            -32.9416987078       17.8867036235      -22.6176141586  W2        1736            0.0000000000
      5208      1736  TIP3      H2            -33.9446987078       17.8783936235      -23.7515441586  W2        1736            0.0000000000
      5209      1737  TIP3      OH2           -23.6455187078       18.5999836235      -28.2749241586  W2        1737            0.0000000000
      5210      1737  TIP3      H1            -23.2706787078       17.8555936235      -28.7456641586  W2        1737            0.0000000000
      5211      1737  TIP3      H2            -23.6411487078       18.3300436235      -27.3565941586  W2        1737            0.0000000000
      5212      1738  TIP3      OH2           -23.9767087078       18.5256936235      -25.5257041586  W2        1738            0.0000000000
      5213      1738  TIP3      H1            -24.9117287078       18.6258836235      -25.3470041586  W2        1738            0.0000000000
      5214      1738  TIP3      H2            -23.6965187078       17.8162936235      -24.9473841586  W2        1738            0.0000000000
      5215      1739  TIP3      OH2           -20.9881187078        7.5929236235      -13.4791441586  W2        1739            0.0000000000
      5216      1739  TIP3      H1            -21.3954387078        8.0734836235      -14.1998141586  W2        1739            0.0000000000
      5217      1739  TIP3      H2            -20.9475487078        6.6875236235      -13.7870641586  W2        1739            0.0000000000
      5218      1740  TIP3      OH2           -33.8391687078       13.9768636235      -15.4824741586  W2        1740            0.0000000000
      5219      1740  TIP3      H1            -33.6230387078       13.6154236235      -14.6228941586  W2        1740            0.0000000000
      5220      1740  TIP3      H2            -34.6946987078       13.6022436235      -15.6921241586  W2        1740            0.0000000000
      5221      1741  TIP3      OH2           -31.2203687078        2.4469136235      -19.4870541586  W2        1741            0.0000000000
      5222      1741  TIP3      H1            -32.0819987078        2.3597336235      -19.8947641586  W2        1741            0.0000000000
      5223      1741  TIP3      H2            -31.2427987078        3.3029236235      -19.0592941586  W2        1741            0.0000000000
      5224      1742  TIP3      OH2           -26.5575887078        2.1689536235      -16.1123541586  W2        1742            0.0000000000
      5225      1742  TIP3      H1            -26.1372787078        1.7536636235      -15.3592941586  W2        1742            0.0000000000
      5226      1742  TIP3      H2            -27.4906287078        1.9902836235      -15.9951541586  W2        1742            0.0000000000
      5227      1743  TIP3      OH2           -23.2310987078        5.9244736235      -15.2589041586  W2        1743            0.0000000000
      5228      1743  TIP3      H1            -23.7451487078        5.7986936235      -14.4613041586  W2        1743            0.0000000000
      5229      1743  TIP3      H2            -23.3866287078        6.8367836235      -15.5032841586  W2        1743            0.0000000000
      5230      1744  TIP3      OH2           -22.4686087078       10.7854736235      -29.4976041586  W2        1744            0.0000000000
      5231      1744  TIP3      H1            -22.4265287078       10.5628636235      -30.4276041586  W2        1744            0.0000000000
      5232      1744  TIP3      H2            -21.6193987078       11.1841836235      -29.3076141586  W2        1744            0.0000000000
      5233      1745  TIP3      OH2           -26.8958587078        4.6612936235      -28.8272741586  W2        1745            0.0000000000
      5234      1745  TIP3      H1            -27.1493787078        4.6804536235      -27.9044641586  W2        1745            0.0000000000
      5235      1745  TIP3      H2            -27.1526487078        3.7898336235      -29.1286541586  W2        1745            0.0000000000
      5236      1746  TIP3      OH2           -31.1293587078        7.4123636235      -18.3920341586  W2        1746            0.0000000000
      5237      1746  TIP3      H1            -31.7711487078        7.3720936235      -17.6830241586  W2        1746            0.0000000000
      5238      1746  TIP3      H2            -31.0921587078        8.3388336235      -18.6297341586  W2        1746            0.0000000000
      5239      1747  TIP3      OH2           -31.1324487078        7.6333736235      -23.4800341586  W2        1747            0.0000000000
      5240      1747  TIP3      H1            -32.0251587078        7.2929836235      -23.5386541586  W2        1747            0.0000000000
      5241      1747  TIP3      H2            -30.6817887078        7.2564636235      -24.2357141586  W2        1747            0.0000000000
      5242      1748  TIP3      OH2           -25.5968987078        8.0494036235      -24.6629541586  W2        1748            0.0000000000
      5243      1748  TIP3      H1            -26.0058687078        8.8642636235      -24.9544741586  W2        1748            0.0000000000
      5244      1748  TIP3      H2            -24.8762787078        7.9094136235      -25.2772441586  W2        1748            0.0000000000
      5245      1749  TIP3      OH2           -26.4947387078        8.2250436235      -13.1748841586  W2        1749            0.0000000000
      5246      1749  TIP3      H1            -27.0573587078        7.5202036235      -12.8541041586  W2        1749            0.0000000000
      5247      1749  TIP3      H2            -25.6683987078        8.1042336235      -12.7071241586  W2        1749            0.0000000000
      5248      1750  TIP3      OH2           -24.5921287078        7.4954436235      -21.8489841586  W2        1750            0.0000000000
      5249      1750  TIP3      H1            -24.7876787078        8.1011236235      -22.5639241586  W2        1750            0.0000000000
      5250      1750  TIP3      H2            -24.4108687078        6.6619636235      -22.2833541586  W2        1750            0.0000000000
      5251      1751  TIP3      OH2           -33.3793087078        7.7327136235      -16.5248341586  W2        1751            0.0000000000
      5252      1751  TIP3      H1            -33.4173687078        8.1328736235      -15.6561241586  W2        1751            0.0000000000
      5253      1751  TIP3      H2            -33.8701987078        6.9159536235      -16.4345441586  W2        1751            0.0000000000
      5254      1752  TIP3      OH2           -30.0135687078        5.1069436235      -29.7262341586  W2        1752            0.0000000000
      5255      1752  TIP3      H1            -30.4444987078        4.6619536235      -28.9964941586  W2        1752            0.0000000000
      5256      1752  TIP3      H2            -30.7316987078        5.4785736235      -30.2384841586  W2        1752            0.0000000000
      5257      1753  TIP3      OH2           -36.7712287078        4.8488936235      -22.6743641586  W2        1753            0.0000000000
      5258      1753  TIP3      H1            -36.1404587078        4.8201036235      -21.9549741586  W2        1753            0.0000000000
      5259      1753  TIP3      H2            -36.3217987078        4.4237636235      -23.4047741586  W2        1753            0.0000000000
      5260      1754  TIP3      OH2           -35.4970187078        5.5950936235      -27.2503241586  W2        1754            0.0000000000
      5261      1754  TIP3      H1            -35.0228487078        6.1860836235      -27.8352341586  W2        1754            0.0000000000
      5262      1754  TIP3      H2            -36.2143787078        6.1253836235      -26.9033141586  W2        1754            0.0000000000
      5263      1755  TIP3      OH2           -25.3282087078        9.1335736235      -17.1777441586  W2        1755            0.0000000000
      5264      1755  TIP3      H1            -25.0047287078        8.5025436235      -17.8206941586  W2        1755            0.0000000000
      5265      1755  TIP3      H2            -25.7682787078        8.5987936235      -16.5170041586  W2        1755            0.0000000000
      5266      1756  TIP3      OH2           -28.5509187078        5.0611236235      -22.3936241586  W2        1756            0.0000000000
      5267      1756  TIP3      H1            -29.4618087078        5.1178036235      -22.1050241586  W2        1756            0.0000000000
      5268      1756  TIP3      H2            -28.0456287078        5.0006736235      -21.5829041586  W2        1756            0.0000000000
      5269      1757  TIP3      OH2           -33.7225787078        6.6897536235      -23.5668641586  W2        1757            0.0000000000
      5270      1757  TIP3      H1            -34.6117787078        6.7893036235      -23.9069041586  W2        1757            0.0000000000
      5271      1757  TIP3      H2            -33.4260887078        5.8480536235      -23.9130741586  W2        1757            0.0000000000
      5272      1758  TIP3      OH2           -30.0693987078        6.6900136235      -25.9104041586  W2        1758            0.0000000000
      5273      1758  TIP3      H1            -29.1378487078        6.8190136235      -25.7320941586  W2        1758            0.0000000000
      5274      1758  TIP3      H2            -30.2843687078        7.3594436235      -26.5599341586  W2        1758            0.0000000000
      5275      1759  TIP3      OH2           -24.1457287078        4.2957536235      -19.1294441586  W2        1759            0.0000000000
      5276      1759  TIP3      H1            -24.8225687078        4.4270636235      -18.4654741586  W2        1759            0.0000000000
      5277      1759  TIP3      H2            -24.6312387078        4.1407036235      -19.9396741586  W2        1759            0.0000000000
      5278      1760  TIP3      OH2           -31.3953787078        7.8842336235      -28.3437941586  W2        1760            0.0000000000
      5279      1760  TIP3      H1            -31.9378687078        7.5046136235      -29.0350341586  W2        1760            0.0000000000
      5280      1760  TIP3      H2            -30.5618887078        8.0787036235      -28.7723841586  W2        1760            0.0000000000
      5281      1761  TIP3      OH2           -20.8582187078       19.9672936235      -12.8526841586  W2        1761            0.0000000000
      5282      1761  TIP3      H1            -20.6583487078       20.3914836235      -13.6871541586  W2        1761            0.0000000000
      5283      1761  TIP3      H2            -20.2028487078       20.3111136235      -12.2456441586  W2        1761            0.0000000000
      5284      1762  TIP3      OH2           -33.2602387078       12.4414236235      -13.2446341586  W2        1762            0.0000000000
      5285      1762  TIP3      H1            -32.5279987078       12.6960136235      -12.6831841586  W2        1762            0.0000000000
      5286      1762  TIP3      H2            -34.0403687078       12.6459636235      -12.7290941586  W2        1762            0.0000000000
      5287      1763  TIP3      OH2           -27.2309487078        7.8484236235      -20.5066641586  W2        1763            0.0000000000
      5288      1763  TIP3      H1            -26.6666087078        7.3020836235      -21.0537041586  W2        1763            0.0000000000
      5289      1763  TIP3      H2            -27.3786087078        7.3266136235      -19.7179041586  W2        1763            0.0000000000
      5290      1764  TIP3      OH2           -32.2289787078        3.9850336235      -24.0881841586  W2        1764            0.0000000000
      5291      1764  TIP3      H1            -32.5460287078        3.0825636235      -24.1236441586  W2        1764            0.0000000000
      5292      1764  TIP3      H2            -31.4475687078        3.9867736235      -24.6410241586  W2        1764            0.0000000000
      5293      1765  TIP3      OH2           -28.6043587078        6.2370336235      -18.0926241586  W2        1765            0.0000000000
      5294      1765  TIP3      H1            -29.4398287078        6.6909836235      -17.9823841586  W2        1765            0.0000000000
      5295      1765  TIP3      H2            -28.0802987078        6.5128836235      -17.3406341586  W2        1765            0.0000000000
      5296      1766  TIP3      OH2           -28.0600987078       12.4498036235      -26.4079841586  W2        1766            0.0000000000
      5297      1766  TIP3      H1            -28.8049987078       11.9423336235      -26.7301941586  W2        1766            0.0000000000
      5298      1766  TIP3      H2            -28.1943787078       12.4986036235      -25.4615041586  W2        1766            0.0000000000
      5299      1767  TIP3      OH2           -20.9102087078       11.5826236235      -17.6212241586  W2        1767            0.0000000000
      5300      1767  TIP3      H1            -20.2683287078       12.0392536235      -18.1650041586  W2        1767            0.0000000000
      5301      1767  TIP3      H2            -21.7405187078       11.6958636235      -18.0838141586  W2        1767            0.0000000000
      5302      1768  TIP3      OH2           -24.1624187078        5.2637936235      -28.2087241586  W2        1768            0.0000000000
      5303      1768  TIP3      H1            -25.1009987078        5.3753536235      -28.3598441586  W2        1768            0.0000000000
      5304      1768  TIP3      H2            -23.8652087078        6.1204836235      -27.9021541586  W2        1768            0.0000000000
      5305      1769  TIP3      OH2           -26.5408887078       12.6341336235      -15.1710741586  W2        1769            0.0000000000
      5306      1769  TIP3      H1            -26.8862787078       12.2523736235      -14.3641141586  W2        1769            0.0000000000
      5307      1769  TIP3      H2            -26.7408787078       13.5674936235      -15.0997841586  W2        1769            0.0000000000
      5308      1770  TIP3      OH2           -23.4440687078        7.1310636235      -26.5479841586  W2        1770            0.0000000000
      5309      1770  TIP3      H1            -22.5521687078        6.9935636235      -26.2288641586  W2        1770            0.0000000000
      5310      1770  TIP3      H2            -23.3877087078        7.9216736235      -27.0846341586  W2        1770            0.0000000000
      5311      1771  TIP3      OH2           -32.9352687078       11.7448036235      -20.6381941586  W2        1771            0.0000000000
      5312      1771  TIP3      H1            -32.1905487078       11.7423736235      -21.2395441586  W2        1771            0.0000000000
      5313      1771  TIP3      H2            -32.8576087078       10.9211836235      -20.1566841586  W2        1771            0.0000000000
      5314      1772  TIP3      OH2           -25.9346887078       13.9082336235      -27.3825241586  W2        1772            0.0000000000
      5315      1772  TIP3      H1            -26.2298487078       14.7350236235      -27.0010441586  W2        1772            0.0000000000
      5316      1772  TIP3      H2            -26.6376887078       13.2889236235      -27.1863841586  W2        1772            0.0000000000
      5317      1773  TIP3      OH2           -35.9272987078       10.2054936235      -15.3233441586  W2        1773            0.0000000000
      5318      1773  TIP3      H1            -35.7044387078        9.7874536235      -14.4915941586  W2        1773            0.0000000000
      5319      1773  TIP3      H2            -36.5292887078        9.5929936235      -15.7460641586  W2        1773            0.0000000000
      5320      1774  TIP3      OH2           -28.9108087078        9.7224836235      -13.1103741586  W2        1774            0.0000000000
      5321      1774  TIP3      H1            -29.2067287078        9.5567836235      -14.0054641586  W2        1774            0.0000000000
      5322      1774  TIP3      H2            -27.9792887078        9.5025136235      -13.1209841586  W2        1774            0.0000000000
      5323      1775  TIP3      OH2           -24.2905287078       15.0956836235      -15.2205741586  W2        1775            0.0000000000
      5324      1775  TIP3      H1            -25.1910987078       15.2789436235      -15.4881841586  W2        1775            0.0000000000
      5325      1775  TIP3      H2            -24.2564187078       15.3546136235      -14.2996941586  W2        1775            0.0000000000
      5326      1776  TIP3      OH2           -18.5591987078        7.3404736235      -26.8533141586  W2        1776            0.0000000000
      5327      1776  TIP3      H1            -19.1135687078        6.9442736235      -27.5255641586  W2        1776            0.0000000000
      5328      1776  TIP3      H2            -18.4588387078        8.2509936235      -27.1309841586  W2        1776            0.0000000000
      5329      1777  TIP3      OH2           -18.5959987078       13.1406436235      -14.0161641586  W2        1777            0.0000000000
      5330      1777  TIP3      H1            -19.4471487078       13.3790236235      -14.3835241586  W2        1777            0.0000000000
      5331      1777  TIP3      H2            -18.0056587078       13.1239636235      -14.7694541586  W2        1777            0.0000000000
      5332      1778  TIP3      OH2           -20.2640287078       16.1265136235      -26.3881041586  W2        1778            0.0000000000
      5333      1778  TIP3      H1            -20.6369187078       15.3008936235      -26.0790441586  W2        1778            0.0000000000
      5334      1778  TIP3      H2            -19.9866787078       15.9434536235      -27.2857641586  W2        1778            0.0000000000
      5335      1779  TIP3      OH2           -23.1036387078       10.9344636235      -19.3669141586  W2        1779            0.0000000000
      5336      1779  TIP3      H1            -24.0319487078       10.7026536235      -19.3939841586  W2        1779            0.0000000000
      5337      1779  TIP3      H2            -22.6525287078       10.1574436235      -19.6970341586  W2        1779            0.0000000000
      5338      1780  TIP3      OH2           -30.5603287078       15.2626236235      -23.2340441586  W2        1780            0.0000000000
      5339      1780  TIP3      H1            -30.0331087078       16.0360636235      -23.4341641586  W2        1780            0.0000000000
      5340      1780  TIP3      H2            -31.4404787078       15.4875436235      -23.5356441586  W2        1780            0.0000000000
      5341      1781  TIP3      OH2           -34.8055587078       10.1250336235      -28.6468041586  W2        1781            0.0000000000
      5342      1781  TIP3      H1            -34.1895687078       10.7517536235      -28.2673241586  W2        1781            0.0000000000
      5343      1781  TIP3      H2            -35.6672987078       10.4410136235      -28.3751541586  W2        1781            0.0000000000
      5344      1782  TIP3      OH2           -29.1330987078       12.9256136235      -23.6576141586  W2        1782            0.0000000000
      5345      1782  TIP3      H1            -29.3740987078       13.8510536235      -23.6160841586  W2        1782            0.0000000000
      5346      1782  TIP3      H2            -29.8737387078       12.4667436235      -23.2612241586  W2        1782            0.0000000000
      5347      1783  TIP3      OH2           -28.6184387078       17.0749736235      -17.3425041586  W2        1783            0.0000000000
      5348      1783  TIP3      H1            -28.2559687078       17.9295336235      -17.5760641586  W2        1783            0.0000000000
      5349      1783  TIP3      H2            -28.0869187078       16.7831336235      -16.6018741586  W2        1783            0.0000000000
      5350      1784  TIP3      OH2           -30.4500187078       17.9473736235      -24.1123941586  W2        1784            0.0000000000
      5351      1784  TIP3      H1            -31.3999687078       18.0531136235      -24.0610641586  W2        1784            0.0000000000
      5352      1784  TIP3      H2            -30.0982087078       18.7681136235      -23.7676441586  W2        1784            0.0000000000
      5353      1785  TIP3      OH2           -25.0743587078       13.1740436235      -17.6419441586  W2        1785            0.0000000000
      5354      1785  TIP3      H1            -25.5002287078       12.9462136235      -16.8155441586  W2        1785            0.0000000000
      5355      1785  TIP3      H2            -24.4937787078       12.4352236235      -17.8244141586  W2        1785            0.0000000000
      5356      1786  TIP3      OH2           -22.8714687078       14.1030936235      -28.5680441586  W2        1786            0.0000000000
      5357      1786  TIP3      H1            -22.5181587078       13.7230736235      -27.7636941586  W2        1786            0.0000000000
      5358      1786  TIP3      H2            -23.8201187078       14.0095736235      -28.4811141586  W2        1786            0.0000000000
      5359      1787  TIP3      OH2           -22.4159387078       17.7259936235      -15.1724641586  W2        1787            0.0000000000
      5360      1787  TIP3      H1            -23.0176187078       17.1702836235      -15.6678341586  W2        1787            0.0000000000
      5361      1787  TIP3      H2            -22.1345687078       18.3929736235      -15.7987241586  W2        1787            0.0000000000
      5362      1788  TIP3      OH2           -18.3680287078       18.5823436235      -28.3670241586  W2        1788            0.0000000000
      5363      1788  TIP3      H1            -17.6242387078       19.1683936235      -28.5068641586  W2        1788            0.0000000000
      5364      1788  TIP3      H2            -19.0622187078       19.1509236235      -28.0337841586  W2        1788            0.0000000000
      5365      1789  TIP3      OH2           -34.2933487078        4.9587636235      -15.7652041586  W2        1789            0.0000000000
      5366      1789  TIP3      H1            -35.1861187078        5.2973036235      -15.8328041586  W2        1789            0.0000000000
      5367      1789  TIP3      H2            -34.3920687078        4.1033736235      -15.3471241586  W2        1789            0.0000000000
      5368      1790  TIP3      OH2           -22.0055387078       12.7752936235      -26.3412541586  W2        1790            0.0000000000
      5369      1790  TIP3      H1            -22.2827787078       12.0472236235      -25.7851441586  W2        1790            0.0000000000
      5370      1790  TIP3      H2            -21.0782387078       12.8944936235      -26.1359941586  W2        1790            0.0000000000
      5371      1791  TIP3      OH2           -34.6421487078       16.7632036235      -17.3302641586  W2        1791            0.0000000000
      5372      1791  TIP3      H1            -34.4251187078       15.8314436235      -17.3612941586  W2        1791            0.0000000000
      5373      1791  TIP3      H2            -34.3957987078       17.0377036235      -16.4469841586  W2        1791            0.0000000000
      5374      1792  TIP3      OH2           -28.7806887078       15.2147036235      -30.1210441586  W2        1792            0.0000000000
      5375      1792  TIP3      H1            -28.5417087078       14.4665136235      -30.6681541586  W2        1792            0.0000000000
      5376      1792  TIP3      H2            -29.0495587078       14.8268736235      -29.2882641586  W2        1792            0.0000000000
      5377      1793  TIP3      OH2           -29.8436287078       14.7850836235      -27.6647841586  W2        1793            0.0000000000
      5378      1793  TIP3      H1            -29.6968287078       14.2650636235      -26.8746941586  W2        1793            0.0000000000
      5379      1793  TIP3      H2            -29.8464587078       15.6918436235      -27.3581941586  W2        1793            0.0000000000
      5380      1794  TIP3      OH2           -33.3905187078       12.0374136235      -27.1542441586  W2        1794            0.0000000000
      5381      1794  TIP3      H1            -34.0765887078       12.3896636235      -26.5872741586  W2        1794            0.0000000000
      5382      1794  TIP3      H2            -32.8677287078       12.8003736235      -27.4008141586  W2        1794            0.0000000000
      5383      1795  TIP3      OH2           -25.5590087078        4.6997936235      -16.8753441586  W2        1795            0.0000000000
      5384      1795  TIP3      H1            -24.8602187078        4.7736636235      -16.2253741586  W2        1795            0.0000000000
      5385      1795  TIP3      H2            -25.9398687078        3.8352936235      -16.7210541586  W2        1795            0.0000000000
      5386      1796  TIP3      OH2           -24.7745187078        4.3519636235      -25.7781141586  W2        1796            0.0000000000
      5387      1796  TIP3      H1            -24.5546887078        4.8235036235      -26.5815741586  W2        1796            0.0000000000
      5388      1796  TIP3      H2            -24.2161187078        4.7462236235      -25.1080541586  W2        1796            0.0000000000
      5389      1797  TIP3      OH2           -27.1059087078       16.4824436235      -26.9153641586  W2        1797            0.0000000000
      5390      1797  TIP3      H1            -27.9222987078       16.9794136235      -26.8629341586  W2        1797            0.0000000000
      5391      1797  TIP3      H2            -26.5762787078       16.9577936235      -27.5554841586  W2        1797            0.0000000000
      5392      1798  TIP3      OH2           -27.5745287078        6.0798436235      -24.9432741586  W2        1798            0.0000000000
      5393      1798  TIP3      H1            -26.7622687078        6.5841636235      -24.8971041586  W2        1798            0.0000000000
      5394      1798  TIP3      H2            -27.8192287078        5.9348136235      -24.0293141586  W2        1798            0.0000000000
      5395      1799  TIP3      OH2           -27.0388887078        7.0661136235      -15.7586141586  W2        1799            0.0000000000
      5396      1799  TIP3      H1            -26.9198587078        7.6396536235      -15.0015741586  W2        1799            0.0000000000
      5397      1799  TIP3      H2            -26.3834287078        6.3780536235      -15.6438341586  W2        1799            0.0000000000
      5398      1800  TIP3      OH2           -26.6908587078        3.1611436235      -24.0051641586  W2        1800            0.0000000000
      5399      1800  TIP3      H1            -27.0375087078        3.7782036235      -23.3607341586  W2        1800            0.0000000000
      5400      1800  TIP3      H2            -26.0321687078        3.6617136235      -24.4866141586  W2        1800            0.0000000000
      5401      1801  TIP3      OH2           -29.7675987078       17.5261636235      -26.9336741586  W2        1801            0.0000000000
      5402      1801  TIP3      H1            -29.6067287078       18.3259136235      -27.4344141586  W2        1801            0.0000000000
      5403      1801  TIP3      H2            -29.9648187078       17.8327636235      -26.0486141586  W2        1801            0.0000000000
      5404      1802  TIP3      OH2           -31.0331587078        4.2240836235      -27.3179141586  W2        1802            0.0000000000
      5405      1802  TIP3      H1            -31.1166787078        5.1123936235      -26.9712741586  W2        1802            0.0000000000
      5406      1802  TIP3      H2            -30.1431287078        3.9587536235      -27.0862341586  W2        1802            0.0000000000
      5407      1803  TIP3      OH2           -20.8343087078        4.9731436235      -14.9236441586  W2        1803            0.0000000000
      5408      1803  TIP3      H1            -21.7507287078        5.2353136235      -15.0112741586  W2        1803            0.0000000000
      5409      1803  TIP3      H2            -20.4988087078        4.9700436235      -15.8201141586  W2        1803            0.0000000000
      5410      1804  TIP3      OH2           -22.2322087078        8.7232436235      -20.8279141586  W2        1804            0.0000000000
      5411      1804  TIP3      H1            -23.0297687078        8.3082636235      -21.1564141586  W2        1804            0.0000000000
      5412      1804  TIP3      H2            -21.7870987078        8.0326136235      -20.3368641586  W2        1804            0.0000000000
      5413      1805  TIP3      OH2           -32.7746287078       14.6513036235      -28.2574641586  W2        1805            0.0000000000
      5414      1805  TIP3      H1            -32.1824787078       15.3507836235      -27.9812241586  W2        1805            0.0000000000
      5415      1805  TIP3      H2            -32.3153287078       14.2182536235      -28.9770041586  W2        1805            0.0000000000
      5416      1806  TIP3      OH2           -34.4587087078        7.3156036235      -29.1415241586  W2        1806            0.0000000000
      5417      1806  TIP3      H1            -34.5034487078        8.2549136235      -28.9628241586  W2        1806            0.0000000000
      5418      1806  TIP3      H2            -35.3463887078        7.0800936235      -29.4113141586  W2        1806            0.0000000000
      5419      1807  TIP3      OH2           -21.1457487078       17.9794936235      -19.2055641586  W2        1807            0.0000000000
      5420      1807  TIP3      H1            -21.3013187078       18.6579336235      -19.8626341586  W2        1807            0.0000000000
      5421      1807  TIP3      H2            -20.2131087078       18.0514236235      -19.0025041586  W2        1807            0.0000000000
      5422      1808  TIP3      OH2           -33.6505087078        2.0972636235      -20.4684241586  W2        1808            0.0000000000
      5423      1808  TIP3      H1            -33.8795287078        2.1565136235      -21.3959241586  W2        1808            0.0000000000
      5424      1808  TIP3      H2            -34.0931687078        1.3058136235      -20.1620141586  W2        1808            0.0000000000
      5425      1809  TIP3      OH2           -34.7201787078       16.0379736235      -24.3078441586  W2        1809            0.0000000000
      5426      1809  TIP3      H1            -35.5523187078       16.5102436235      -24.2807041586  W2        1809            0.0000000000
      5427      1809  TIP3      H2            -34.1743487078       16.5477336235      -24.9065341586  W2        1809            0.0000000000
      5428      1810  TIP3      OH2           -35.4318087078       18.6503436235      -12.9780441586  W2        1810            0.0000000000
      5429      1810  TIP3      H1            -34.8915887078       18.4337436235      -12.2181241586  W2        1810            0.0000000000
      5430      1810  TIP3      H2            -35.9130087078       17.8449436235      -13.1677941586  W2        1810            0.0000000000
      5431      1811  TIP3      OH2           -30.8344687078       17.5697836235      -11.3576241586  W2        1811            0.0000000000
      5432      1811  TIP3      H1            -30.0667487078       17.1108636235      -11.0167041586  W2        1811            0.0000000000
      5433      1811  TIP3      H2            -30.8558487078       17.3437636235      -12.2875041586  W2        1811            0.0000000000
      5434      1812  TIP3      OH2           -26.7425087078       17.0778436235      -29.9824441586  W2        1812            0.0000000000
      5435      1812  TIP3      H1            -27.3864087078       16.4467036235      -29.6610741586  W2        1812            0.0000000000
      5436      1812  TIP3      H2            -25.9806787078       16.5466436235      -30.2140941586  W2        1812            0.0000000000
      5437      1813  TIP3      OH2           -24.2575987078       15.9498936235      -12.6284741586  W2        1813            0.0000000000
      5438      1813  TIP3      H1            -24.6086487078       15.0931936235      -12.3854341586  W2        1813            0.0000000000
      5439      1813  TIP3      H2            -23.5312787078       16.0925636235      -12.0215741586  W2        1813            0.0000000000
      5440      1814  TIP3      OH2           -22.1382187078       16.8948336235      -29.7486441586  W2        1814            0.0000000000
      5441      1814  TIP3      H1            -21.8551787078       16.1003536235      -29.2959541586  W2        1814            0.0000000000
      5442      1814  TIP3      H2            -21.3984287078       17.1279336235      -30.3095341586  W2        1814            0.0000000000
      5443      1815  TIP3      OH2           -35.5248587078       12.4607536235      -12.0236141586  W2        1815            0.0000000000
      5444      1815  TIP3      H1            -35.3808087078       11.5588236235      -12.3099441586  W2        1815            0.0000000000
      5445      1815  TIP3      H2            -36.2971187078       12.7469636235      -12.5113841586  W2        1815            0.0000000000
      5446      1816  TIP3      OH2           -31.1834887078       12.8043236235      -29.8911541586  W2        1816            0.0000000000
      5447      1816  TIP3      H1            -31.1190787078       12.0102836235      -29.3605141586  W2        1816            0.0000000000
      5448      1816  TIP3      H2            -30.5305687078       12.6856036235      -30.5809541586  W2        1816            0.0000000000
      5449      1817  TIP3      OH2           -28.8692487078       12.4305636235      -12.5909741586  W2        1817            0.0000000000
      5450      1817  TIP3      H1            -29.1978687078       12.7013736235      -13.4482341586  W2        1817            0.0000000000
      5451      1817  TIP3      H2            -28.7174287078       11.4895436235      -12.6784741586  W2        1817            0.0000000000
      5452      1818  TIP3      OH2           -25.8311487078       13.8514936235      -30.1553541586  W2        1818            0.0000000000
      5453      1818  TIP3      H1            -26.0997387078       14.0317036235      -29.2544641586  W2        1818            0.0000000000
      5454      1818  TIP3      H2            -26.0375887078       12.9261136235      -30.2867741586  W2        1818            0.0000000000
      5455      1819  TIP3      OH2           -23.1347287078       12.3462936235      -15.2077441586  W2        1819            0.0000000000
      5456      1819  TIP3      H1            -22.3892487078       12.9346636235      -15.3273441586  W2        1819            0.0000000000
      5457      1819  TIP3      H2            -23.8920487078       12.9282636235      -15.1444341586  W2        1819            0.0000000000
      5458      1820  TIP3      OH2           -34.6922087078        9.6610836235      -12.6036841586  W2        1820            0.0000000000
      5459      1820  TIP3      H1            -34.2840887078        8.8037436235      -12.7246241586  W2        1820            0.0000000000
      5460      1820  TIP3      H2            -34.9524487078        9.6752136235      -11.6826541586  W2        1820            0.0000000000
      5461      1821  TIP3      OH2           -30.0341087078       10.7769436235      -27.5853541586  W2        1821            0.0000000000
      5462      1821  TIP3      H1            -30.4939087078       10.2927736235      -26.8995041586  W2        1821            0.0000000000
      5463      1821  TIP3      H2            -29.7792387078       10.1084836235      -28.2213041586  W2        1821            0.0000000000
      5464      1822  TIP3      OH2           -30.7451787078        8.6696536235      -15.2293941586  W2        1822            0.0000000000
      5465      1822  TIP3      H1            -31.3635687078        9.3443136235      -14.9489241586  W2        1822            0.0000000000
      5466      1822  TIP3      H2            -30.4010587078        8.9910436235      -16.0627741586  W2        1822            0.0000000000
      5467      1823  TIP3      OH2           -28.9630687078        9.0201236235      -29.3230341586  W2        1823            0.0000000000
      5468      1823  TIP3      H1            -29.1435687078        8.8652436235      -30.2502041586  W2        1823            0.0000000000
      5469      1823  TIP3      H2            -28.0130187078        9.1279936235      -29.2782441586  W2        1823            0.0000000000
      5470      1824  TIP3      OH2           -25.7253587078       11.1411836235      -11.9519141586  W2        1824            0.0000000000
      5471      1824  TIP3      H1            -24.7722387078       11.2250936235      -11.9793141586  W2        1824            0.0000000000
      5472      1824  TIP3      H2            -25.8858987078       10.4293636235      -11.3324241586  W2        1824            0.0000000000
      5473      1825  TIP3      OH2           -19.5732387078       11.3745436235      -29.8772241586  W2        1825            0.0000000000
      5474      1825  TIP3      H1            -19.8467587078       10.9500936235      -30.6903941586  W2        1825            0.0000000000
      5475      1825  TIP3      H2            -19.5338287078       12.3059936235      -30.0941841586  W2        1825            0.0000000000
      5476      1826  TIP3      OH2           -30.4058087078        6.0247336235      -14.1470841586  W2        1826            0.0000000000
      5477      1826  TIP3      H1            -30.2557187078        5.2958636235      -14.7491141586  W2        1826            0.0000000000
      5478      1826  TIP3      H2            -30.4035687078        6.8019036235      -14.7058641586  W2        1826            0.0000000000
      5479      1827  TIP3      OH2           -29.9932387078        4.3943136235      -16.6543441586  W2        1827            0.0000000000
      5480      1827  TIP3      H1            -29.4574887078        4.8459836235      -17.3064141586  W2        1827            0.0000000000
      5481      1827  TIP3      H2            -30.8452787078        4.2862936235      -17.0769341586  W2        1827            0.0000000000
      5482      1828  TIP3      OH2           -28.4113987078        9.8339336235      -16.4148241586  W2        1828            0.0000000000
      5483      1828  TIP3      H1            -27.6609187078        9.6776836235      -16.9880441586  W2        1828            0.0000000000
      5484      1828  TIP3      H2            -28.7505687078       10.6855936235      -16.6902741586  W2        1828            0.0000000000
      5485      1829  TIP3      OH2           -23.9957787078        7.6491136235      -11.3862941586  W2        1829            0.0000000000
      5486      1829  TIP3      H1            -23.8036487078        6.7180536235      -11.4978441586  W2        1829            0.0000000000
      5487      1829  TIP3      H2            -23.1381487078        8.0740636235      -11.3967541586  W2        1829            0.0000000000
      5488      1830  TIP3      OH2           -22.6790587078       10.4376336235      -13.3090241586  W2        1830            0.0000000000
      5489      1830  TIP3      H1            -22.9605587078       11.1470936235      -13.8866441586  W2        1830            0.0000000000
      5490      1830  TIP3      H2            -21.7366287078       10.3649336235      -13.4599041586  W2        1830            0.0000000000
      5491      1831  TIP3      OH2           -31.9271787078        7.2230836235      -12.2355241586  W2        1831            0.0000000000
      5492      1831  TIP3      H1            -32.6942787078        6.6905636235      -12.4457641586  W2        1831            0.0000000000
      5493      1831  TIP3      H2            -31.2482787078        6.9131236235      -12.8348941586  W2        1831            0.0000000000
      5494      1832  TIP3      OH2           -29.1876887078        1.8508836235      -16.2229841586  W2        1832            0.0000000000
      5495      1832  TIP3      H1            -29.2857287078        2.7972036235      -16.3283641586  W2        1832            0.0000000000
      5496      1832  TIP3      H2            -29.9300687078        1.4782636235      -16.6986341586  W2        1832            0.0000000000
      5497      1833  TIP3      OH2           -27.9236387078        6.1724236235      -12.6591441586  W2        1833            0.0000000000
      5498      1833  TIP3      H1            -28.1590987078        5.9530936235      -11.7576541586  W2        1833            0.0000000000
      5499      1833  TIP3      H2            -28.7069487078        5.9655436235      -13.1688941586  W2        1833            0.0000000000
      5500      1834  TIP3      OH2           -25.2079787078        5.2997736235      -13.5837941586  W2        1834            0.0000000000
      5501      1834  TIP3      H1            -26.1554387078        5.3317436235      -13.4514641586  W2        1834            0.0000000000
      5502      1834  TIP3      H2            -24.8953087078        4.6744836235      -12.9299741586  W2        1834            0.0000000000
      5503      1835  TIP3      OH2           -23.5738287078        3.9338836235      -11.5786041586  W2        1835            0.0000000000
      5504      1835  TIP3      H1            -23.6706487078        2.9816136235      -11.5844141586  W2        1835            0.0000000000
      5505      1835  TIP3      H2            -23.8955187078        4.2025636235      -10.7180541586  W2        1835            0.0000000000
      5506      1836  TIP3      OH2           -33.7468987078        5.1434636235      -12.5310541586  W2        1836            0.0000000000
      5507      1836  TIP3      H1            -33.5351587078        4.4370736235      -13.1413041586  W2        1836            0.0000000000
      5508      1836  TIP3      H2            -33.8581487078        4.7060636235      -11.6869341586  W2        1836            0.0000000000
      5509      1837  TIP3      OH2           -28.9658787078        1.1446236235      -13.5517041586  W2        1837            0.0000000000
      5510      1837  TIP3      H1            -28.2540387078        0.5048436235      -13.5657941586  W2        1837            0.0000000000
      5511      1837  TIP3      H2            -29.0668387078        1.4114536235      -14.4653941586  W2        1837            0.0000000000
      5512      1838  TIP3      OH2           -28.6121287078        2.8274636235      -11.4980741586  W2        1838            0.0000000000
      5513      1838  TIP3      H1            -28.7439087078        2.3518436235      -12.3182241586  W2        1838            0.0000000000
      5514      1838  TIP3      H2            -29.2113887078        3.5718236235      -11.5533641586  W2        1838            0.0000000000
      5515      1839  TIP3      OH2           -29.0658987078       19.7104936235      -28.3216741586  W2        1839            0.0000000000
      5516      1839  TIP3      H1            -28.1328287078       19.8683636235      -28.1778341586  W2        1839            0.0000000000
      5517      1839  TIP3      H2            -29.3300187078       20.3857936235      -28.9465241586  W2        1839            0.0000000000
      5518      1840  TIP3      OH2           -35.4974087078       14.3468736235      -28.8388641586  W2        1840            0.0000000000
      5519      1840  TIP3      H1            -34.5834887078       14.4257636235      -28.5654741586  W2        1840            0.0000000000
      5520      1840  TIP3      H2            -35.4900987078       13.6598336235      -29.5053041586  W2        1840            0.0000000000
      5521      1841  TIP3      OH2           -36.8483487078       19.7397236235      -23.7614741586  W2        1841            0.0000000000
      5522      1841  TIP3      H1            -37.4956387078       19.2778936235      -24.2943541586  W2        1841            0.0000000000
      5523      1841  TIP3      H2            -36.4938887078       19.0680536235      -23.1788541586  W2        1841            0.0000000000
      5524      1842  TIP3      OH2           -35.9784287078       17.8204236235      -21.9568541586  W2        1842            0.0000000000
      5525      1842  TIP3      H1            -36.3127487078       16.9401536235      -21.7848341586  W2        1842            0.0000000000
      5526      1842  TIP3      H2            -35.7561887078       18.1659236235      -21.0922941586  W2        1842            0.0000000000
      5527      1843  TIP3      OH2           -18.4299487078       18.6300636235      -18.9763741586  W2        1843            0.0000000000
      5528      1843  TIP3      H1            -18.4512787078       18.8149036235      -18.0374341586  W2        1843            0.0000000000
      5529      1843  TIP3      H2            -17.7393287078       19.1984636235      -19.3172341586  W2        1843            0.0000000000
      5530      1844  TIP3      OH2           -18.8666587078       18.1971736235      -16.0544641586  W2        1844            0.0000000000
      5531      1844  TIP3      H1            -19.3537887078       17.4615836235      -16.4257241586  W2        1844            0.0000000000
      5532      1844  TIP3      H2            -18.3173887078       17.8035636235      -15.3765241586  W2        1844            0.0000000000
      5533      1845  TIP3      OH2           -20.4159287078       13.9869836235      -11.4164341586  W2        1845            0.0000000000
      5534      1845  TIP3      H1            -21.2818187078       13.8819536235      -11.0222041586  W2        1845            0.0000000000
      5535      1845  TIP3      H2            -20.0393387078       14.7453136235      -10.9699641586  W2        1845            0.0000000000
      5536      1846  TIP3      OH2           -19.1149587078       12.2433536235      -25.9021841586  W2        1846            0.0000000000
      5537      1846  TIP3      H1            -18.2648187078       12.6644436235      -25.7750241586  W2        1846            0.0000000000
      5538      1846  TIP3      H2            -19.1094487078       11.5033636235      -25.2950441586  W2        1846            0.0000000000
      5539      1847  TIP3      OH2           -18.7203987078       10.2970936235      -24.0786141586  W2        1847            0.0000000000
      5540      1847  TIP3      H1            -19.4469387078        9.8173536235      -23.6808541586  W2        1847            0.0000000000
      5541      1847  TIP3      H2            -18.1390687078       10.5025636235      -23.3464541586  W2        1847            0.0000000000
      5542      1848  TIP3      OH2           -18.9612787078       13.0818436235      -19.1308541586  W2        1848            0.0000000000
      5543      1848  TIP3      H1            -18.1278587078       12.7038436235      -19.4114941586  W2        1848            0.0000000000
      5544      1848  TIP3      H2            -18.8492487078       14.0249636235      -19.2499441586  W2        1848            0.0000000000
      5545      1849  TIP3      OH2           -20.4750487078       15.9595936235      -16.8240141586  W2        1849            0.0000000000
      5546      1849  TIP3      H1            -21.1225187078       16.2847436235      -16.1984941586  W2        1849            0.0000000000
      5547      1849  TIP3      H2            -20.9926487078       15.5193636235      -17.4981841586  W2        1849            0.0000000000
      5548      1850  TIP3      OH2           -18.4520887078       10.1979436235      -27.6874841586  W2        1850            0.0000000000
      5549      1850  TIP3      H1            -18.9739787078       10.5543536235      -28.4063941586  W2        1850            0.0000000000
      5550      1850  TIP3      H2            -18.4851687078       10.8727236235      -27.0093941586  W2        1850            0.0000000000
      5551      1851  TIP3      OH2           -20.1031887078        7.4375036235      -29.1367741586  W2        1851            0.0000000000
      5552      1851  TIP3      H1            -20.0067487078        8.1042036235      -29.8168041586  W2        1851            0.0000000000
      5553      1851  TIP3      H2            -20.2432287078        6.6221336235      -29.6182241586  W2        1851            0.0000000000
      5554      1852  TIP3      OH2           -20.9337187078        8.8177436235      -23.5157441586  W2        1852            0.0000000000
      5555      1852  TIP3      H1            -21.0838387078        7.8726036235      -23.5359641586  W2        1852            0.0000000000
      5556      1852  TIP3      H2            -21.2872687078        9.0988836235      -22.6718341586  W2        1852            0.0000000000
      5557      1853  TIP3      OH2           -35.8984787078       10.8959636235      -19.5053641586  W2        1853            0.0000000000
      5558      1853  TIP3      H1            -35.7141887078       10.8141336235      -20.4410741586  W2        1853            0.0000000000
      5559      1853  TIP3      H2            -35.0491887078       10.7716636235      -19.0817241586  W2        1853            0.0000000000
      5560      1854  TIP3      OH2           -20.0774287078       10.7880736235      -13.8769141586  W2        1854            0.0000000000
      5561      1854  TIP3      H1            -19.4946987078       10.0533036235      -13.6851941586  W2        1854            0.0000000000
      5562      1854  TIP3      H2            -19.5134987078       11.5601036235      -13.8303341586  W2        1854            0.0000000000
      5563      1855  TIP3      OH2           -18.5807187078        8.6906536235      -13.1923741586  W2        1855            0.0000000000
      5564      1855  TIP3      H1            -19.4440487078        8.3118636235      -13.3579041586  W2        1855            0.0000000000
      5565      1855  TIP3      H2            -17.9763487078        7.9521336235      -13.2667941586  W2        1855            0.0000000000
      5566      1856  TIP3      OH2           -20.8558087078        4.8454836235      -30.0192241586  W2        1856            0.0000000000
      5567      1856  TIP3      H1            -20.2452287078        4.4741636235      -29.3824041586  W2        1856            0.0000000000
      5568      1856  TIP3      H2            -21.6926587078        4.4241736235      -29.8232241586  W2        1856            0.0000000000
      5569      1857  TIP3      OH2           -21.2232387078        6.4003236235      -25.0532341586  W2        1857            0.0000000000
      5570      1857  TIP3      H1            -20.9435287078        5.4933636235      -24.9290641586  W2        1857            0.0000000000
      5571      1857  TIP3      H2            -20.4640687078        6.8344736235      -25.4423141586  W2        1857            0.0000000000
      5572      1858  TIP3      OH2           -20.6114087078        6.9820636235      -19.6173441586  W2        1858            0.0000000000
      5573      1858  TIP3      H1            -19.6786087078        7.1940536235      -19.6517441586  W2        1858            0.0000000000
      5574      1858  TIP3      H2            -20.8466587078        7.0832736235      -18.6950441586  W2        1858            0.0000000000
      5575      1859  TIP3      OH2           -20.5822187078        7.7185936235      -16.8414041586  W2        1859            0.0000000000
      5576      1859  TIP3      H1            -21.4250887078        7.9866336235      -16.4754241586  W2        1859            0.0000000000
      5577      1859  TIP3      H2            -20.1397887078        8.5407836235      -17.0522941586  W2        1859            0.0000000000
      5578      1860  TIP3      OH2           -36.3009987078        6.1664636235      -13.3644841586  W2        1860            0.0000000000
      5579      1860  TIP3      H1            -35.3815087078        6.0442936235      -13.1281741586  W2        1860            0.0000000000
      5580      1860  TIP3      H2            -36.7505487078        5.4164336235      -12.9751341586  W2        1860            0.0000000000
      5581      1861  TIP3      OH2           -18.2990587078        1.6986136235      -11.4879041586  W2        1861            0.0000000000
      5582      1861  TIP3      H1            -17.9493587078        1.0449636235      -12.0934341586  W2        1861            0.0000000000
      5583      1861  TIP3      H2            -18.1521087078        2.5360236235      -11.9276441586  W2        1861            0.0000000000
      5584      1862  TIP3      OH2           -20.6097587078        3.6632536235      -25.0050341586  W2        1862            0.0000000000
      5585      1862  TIP3      H1            -20.4272587078        3.2144036235      -24.1795341586  W2        1862            0.0000000000
      5586      1862  TIP3      H2            -21.2094687078        3.0786936235      -25.4685741586  W2        1862            0.0000000000
      5587      1863  TIP3      OH2           -35.0797487078        4.4786236235      -20.4731941586  W2        1863            0.0000000000
      5588      1863  TIP3      H1            -34.6345887078        3.6868736235      -20.1712241586  W2        1863            0.0000000000
      5589      1863  TIP3      H2            -34.6134487078        5.1951436235      -20.0426341586  W2        1863            0.0000000000
      5590      1864  TIP3      OH2           -36.7757187078        7.4779236235      -19.4041741586  W2        1864            0.0000000000
      5591      1864  TIP3      H1            -36.2837387078        7.2569736235      -20.1949741586  W2        1864            0.0000000000
      5592      1864  TIP3      H2            -36.4136287078        8.3182636235      -19.1232241586  W2        1864            0.0000000000
      5593      1865  TIP3      OH2           -18.7793387078        3.8080736235      -13.1387741586  W2        1865            0.0000000000
      5594      1865  TIP3      H1            -19.6967687078        4.0787836235      -13.1744241586  W2        1865            0.0000000000
      5595      1865  TIP3      H2            -18.6563987078        3.2729136235      -13.9228041586  W2        1865            0.0000000000
      5596      1866  TIP3      OH2           -18.7431387078        3.7310636235      -28.4770041586  W2        1866            0.0000000000
      5597      1866  TIP3      H1            -18.3308787078        3.0096336235      -28.9522041586  W2        1866            0.0000000000
      5598      1866  TIP3      H2            -18.0614887078        4.4005236235      -28.4185741586  W2        1866            0.0000000000
      5599      1867  TIP3      OH2           -36.4620687078        3.7358336235      -25.3499341586  W2        1867            0.0000000000
      5600      1867  TIP3      H1            -37.3872287078        3.9444936235      -25.4793841586  W2        1867            0.0000000000
      5601      1867  TIP3      H2            -36.0080787078        4.2199136235      -26.0397041586  W2        1867            0.0000000000
      5602      1868  TIP3      OH2           -21.6913487078       18.7200036235      -23.4041941586  W2        1868            0.0000000000
      5603      1868  TIP3      H1            -21.0390587078       18.3722136235      -24.0122841586  W2        1868            0.0000000000
      5604      1868  TIP3      H2            -21.1809687078       19.2083236235      -22.7582241586  W2        1868            0.0000000000
      5605      1869  TIP3      OH2           -36.4985287078        2.4737336235      -17.0056841586  W2        1869            0.0000000000
      5606      1869  TIP3      H1            -37.1634787078        2.2277636235      -16.3625941586  W2        1869            0.0000000000
      5607      1869  TIP3      H2            -36.9413987078        3.0957736235      -17.5828841586  W2        1869            0.0000000000
      5608      1870  TIP3      OH2           -34.3065987078       15.6491436235      -12.8611041586  W2        1870            0.0000000000
      5609      1870  TIP3      H1            -35.1273487078       15.8237936235      -13.3216341586  W2        1870            0.0000000000
      5610      1870  TIP3      H2            -34.5588187078       15.5756136235      -11.9406641586  W2        1870            0.0000000000
      5611      1871  TIP3      OH2           -31.3523087078       16.6232636235      -16.6027041586  W2        1871            0.0000000000
      5612      1871  TIP3      H1            -31.7771987078       17.4331136235      -16.8852441586  W2        1871            0.0000000000
      5613      1871  TIP3      H2            -30.4480287078       16.7086736235      -16.9047241586  W2        1871            0.0000000000
      5614      1872  TIP3      OH2           -27.0411687078       18.0222636235      -13.6433341586  W2        1872            0.0000000000
      5615      1872  TIP3      H1            -26.8564187078       17.6888736235      -12.7653041586  W2        1872            0.0000000000
      5616      1872  TIP3      H2            -26.1947187078       18.3321236235      -13.9654141586  W2        1872            0.0000000000
      5617      1873  TIP3      OH2           -24.6961287078       19.3081536235      -14.3991941586  W2        1873            0.0000000000
      5618      1873  TIP3      H1            -24.0192387078       18.6753836235      -14.6392741586  W2        1873            0.0000000000
      5619      1873  TIP3      H2            -24.3742487078       19.7092036235      -13.5918641586  W2        1873            0.0000000000
      5620      1874  TIP3      OH2           -19.7787487078        1.8977036235      -15.3196941586  W2        1874            0.0000000000
      5621      1874  TIP3      H1            -20.5913987078        2.2227336235      -15.7072241586  W2        1874            0.0000000000
      5622      1874  TIP3      H2            -19.5458987078        1.1375536235      -15.8527841586  W2        1874            0.0000000000
      5623      1875  TIP3      OH2           -33.9506387078       19.8796536235      -16.5551741586  W2        1875            0.0000000000
      5624      1875  TIP3      H1            -34.6709987078       20.3197536235      -17.0064041586  W2        1875            0.0000000000
      5625      1875  TIP3      H2            -34.3162387078       19.6291236235      -15.7067741586  W2        1875            0.0000000000
      5626      1876  TIP3      OH2           -31.4833787078       19.4800436235      -17.5254541586  W2        1876            0.0000000000
      5627      1876  TIP3      H1            -32.3481587078       19.5518936235      -17.1214441586  W2        1876            0.0000000000
      5628      1876  TIP3      H2            -31.5384787078       20.0267736235      -18.3092041586  W2        1876            0.0000000000
      5629      1877  TIP3      OH2           -26.7728187078       19.3679336235      -18.3498541586  W2        1877            0.0000000000
      5630      1877  TIP3      H1            -27.2294187078       19.8969036235      -19.0040141586  W2        1877            0.0000000000
      5631      1877  TIP3      H2            -26.6100187078       19.9710736235      -17.6246241586  W2        1877            0.0000000000
      5632      1878  TIP3      OH2           -24.4451887078       18.2458936235      -17.4048241586  W2        1878            0.0000000000
      5633      1878  TIP3      H1            -25.3498187078       18.4109136235      -17.6706141586  W2        1878            0.0000000000
      5634      1878  TIP3      H2            -24.0163287078       19.0991136235      -17.4704841586  W2        1878            0.0000000000
      5635      1879  TIP3      OH2           -21.8409987078       19.8158036235      -17.1100441586  W2        1879            0.0000000000
      5636      1879  TIP3      H1            -22.0227987078       20.7316936235      -17.3205541586  W2        1879            0.0000000000
      5637      1879  TIP3      H2            -21.6642187078       19.4055136235      -17.9565841586  W2        1879            0.0000000000
      5638      1880  TIP3      OH2           -34.5358287078       18.5029036235      -19.6449941586  W2        1880            0.0000000000
      5639      1880  TIP3      H1            -34.5542287078       18.0774136235      -18.7877641586  W2        1880            0.0000000000
      5640      1880  TIP3      H2            -33.7310387078       18.1844036235      -20.0537741586  W2        1880            0.0000000000
      5641      1881  TIP3      OH2           -32.3945187078       17.2127736235      -20.9900041586  W2        1881            0.0000000000
      5642      1881  TIP3      H1            -32.6134487078       16.2965136235      -20.8204041586  W2        1881            0.0000000000
      5643      1881  TIP3      H2            -31.5702987078       17.3528136235      -20.5238641586  W2        1881            0.0000000000
      5644      1882  TIP3      OH2           -29.8572687078       17.6827036235      -20.1412041586  W2        1882            0.0000000000
      5645      1882  TIP3      H1            -29.6446987078       16.7946036235      -20.4281141586  W2        1882            0.0000000000
      5646      1882  TIP3      H2            -29.7927587078       17.6484736235      -19.1868041586  W2        1882            0.0000000000
      5647      1883  TIP3      OH2           -26.3488987078        3.3467636235      -20.9968741586  W2        1883            0.0000000000
      5648      1883  TIP3      H1            -27.0232187078        2.7173236235      -20.7412941586  W2        1883            0.0000000000
      5649      1883  TIP3      H2            -25.7849787078        2.8626536235      -21.6000841586  W2        1883            0.0000000000
      5650      1884  TIP3      OH2           -21.2061787078        1.4541636235      -20.8841641586  W2        1884            0.0000000000
      5651      1884  TIP3      H1            -20.6024187078        2.0017036235      -21.3860641586  W2        1884            0.0000000000
      5652      1884  TIP3      H2            -22.0759787078        1.7732036235      -21.1247541586  W2        1884            0.0000000000
      5653      1885  TIP3      OH2           -19.4791387078        2.5930336235      -22.5510741586  W2        1885            0.0000000000
      5654      1885  TIP3      H1            -18.8673887078        2.0786036235      -23.0777141586  W2        1885            0.0000000000
      5655      1885  TIP3      H2            -19.0967987078        3.4702436235      -22.5276341586  W2        1885            0.0000000000
      5656      1886  TIP3      OH2           -34.0221487078        1.9807936235      -23.1748841586  W2        1886            0.0000000000
      5657      1886  TIP3      H1            -34.7991687078        1.7462836235      -23.6822941586  W2        1886            0.0000000000
      5658      1886  TIP3      H2            -33.4917887078        1.1840036235      -23.1660841586  W2        1886            0.0000000000
      5659      1887  TIP3      OH2           -35.1858087078        1.7786036235      -27.3712741586  W2        1887            0.0000000000
      5660      1887  TIP3      H1            -34.7467387078        2.3896536235      -27.9629241586  W2        1887            0.0000000000
      5661      1887  TIP3      H2            -35.8195687078        2.3170136235      -26.8972741586  W2        1887            0.0000000000
      5662      1888  TIP3      OH2           -29.4428887078        1.9075036235      -23.3615741586  W2        1888            0.0000000000
      5663      1888  TIP3      H1            -28.5685487078        2.2959336235      -23.3911441586  W2        1888            0.0000000000
      5664      1888  TIP3      H2            -29.5788087078        1.6922836235      -22.4388541586  W2        1888            0.0000000000
      5665      1889  TIP3      OH2           -23.8860487078        1.9374836235      -21.7124041586  W2        1889            0.0000000000
      5666      1889  TIP3      H1            -23.8098887078        2.0326436235      -22.6618041586  W2        1889            0.0000000000
      5667      1889  TIP3      H2            -24.1611287078        1.0297736235      -21.5834941586  W2        1889            0.0000000000
      5668      1890  TIP3      OH2           -22.5327887078        1.9632636235      -26.0199041586  W2        1890            0.0000000000
      5669      1890  TIP3      H1            -23.2356787078        2.5781836235      -26.2297641586  W2        1890            0.0000000000
      5670      1890  TIP3      H2            -22.9776487078        1.1259336235      -25.8888141586  W2        1890            0.0000000000
      5671      1891  TIP3      OH2           -35.2848587078       17.7268236235      -26.4737641586  W2        1891            0.0000000000
      5672      1891  TIP3      H1            -35.9698687078       17.6887136235      -27.1412541586  W2        1891            0.0000000000
      5673      1891  TIP3      H2            -35.2811387078       18.6395836235      -26.1855541586  W2        1891            0.0000000000
      5674      1892  TIP3      OH2           -33.3248987078        3.6947536235      -28.9288641586  W2        1892            0.0000000000
      5675      1892  TIP3      H1            -32.8335587078        3.0649936235      -29.4563141586  W2        1892            0.0000000000
      5676      1892  TIP3      H2            -32.7012687078        3.9906936235      -28.2657441586  W2        1892            0.0000000000
      5677      1893  TIP3      OH2           -28.2988887078        3.9879036235      -26.4718141586  W2        1893            0.0000000000
      5678      1893  TIP3      H1            -28.1207587078        3.3412236235      -25.7889541586  W2        1893            0.0000000000
      5679      1893  TIP3      H2            -28.3522687078        4.8216736235      -26.0047041586  W2        1893            0.0000000000
      5680      1894  TIP3      OH2           -26.4205087078       18.9363136235      -28.0761441586  W2        1894            0.0000000000
      5681      1894  TIP3      H1            -25.5544887078       19.3030536235      -28.2543241586  W2        1894            0.0000000000
      5682      1894  TIP3      H2            -26.6672287078       18.4971136235      -28.8900641586  W2        1894            0.0000000000
      5683      1895  TIP3      OH2           -19.7115487078       18.4993436235      -25.3970341586  W2        1895            0.0000000000
      5684      1895  TIP3      H1            -19.9058387078       17.7515536235      -25.9620741586  W2        1895            0.0000000000
      5685      1895  TIP3      H2            -19.7505387078       19.2573536235      -25.9802441586  W2        1895            0.0000000000
      5686      1896  TIP3      OH2           -34.0643487078        2.4949836235      -13.6572641586  W2        1896            0.0000000000
      5687      1896  TIP3      H1            -34.4305287078        1.7292436235      -13.2147941586  W2        1896            0.0000000000
      5688      1896  TIP3      H2            -33.1514987078        2.5240036235      -13.3707541586  W2        1896            0.0000000000
      5689      1897  TIP3      OH2           -32.0912687078        1.8454236235      -12.1215541586  W2        1897            0.0000000000
      5690      1897  TIP3      H1            -31.1929087078        1.5714436235      -12.3062141586  W2        1897            0.0000000000
      5691      1897  TIP3      H2            -32.4779587078        1.1030236235      -11.6572941586  W2        1897            0.0000000000
      5692      1898  TIP3      OH2           -33.4667387078       18.6469036235      -29.4485541586  W2        1898            0.0000000000
      5693      1898  TIP3      H1            -33.7342787078       18.9331936235      -28.5752441586  W2        1898            0.0000000000
      5694      1898  TIP3      H2            -32.6954787078       18.1008236235      -29.2963041586  W2        1898            0.0000000000
      5695      1899  TIP3      OH2           -23.6700387078        1.1779536235      -11.9392741586  W2        1899            0.0000000000
      5696      1899  TIP3      H1            -23.5933187078        0.7520236235      -11.0855041586  W2        1899            0.0000000000
      5697      1899  TIP3      H2            -22.7763787078        1.1914236235      -12.2819241586  W2        1899            0.0000000000
      5698      1900  TIP3      OH2           -20.4939287078       17.2505836235      -13.2468541586  W2        1900            0.0000000000
      5699      1900  TIP3      H1            -21.2757387078       17.0643836235      -13.7667941586  W2        1900            0.0000000000
      5700      1900  TIP3      H2            -20.5659387078       18.1800136235      -13.0296041586  W2        1900            0.0000000000
      5701      1901  TIP3      OH2            -6.0878887078       11.1370236235      -23.2161341586  W2        1901            0.0000000000
      5702      1901  TIP3      H1             -5.9987787078       12.0808436235      -23.3484241586  W2        1901            0.0000000000
      5703      1901  TIP3      H2             -6.7261287078       10.8616636235      -23.8741941586  W2        1901            0.0000000000
      5704      1902  TIP3      OH2            -7.1547587078       10.3920936235      -19.7973141586  W2        1902            0.0000000000
      5705      1902  TIP3      H1             -7.1930087078        9.7457236235      -19.0923541586  W2        1902            0.0000000000
      5706      1902  TIP3      H2             -7.4771087078        9.9255336235      -20.5684441586  W2        1902            0.0000000000
      5707      1903  TIP3      OH2           -14.7862587078       10.0063036235      -18.2043241586  W2        1903            0.0000000000
      5708      1903  TIP3      H1            -14.7450487078        9.3806336235      -17.4810841586  W2        1903            0.0000000000
      5709      1903  TIP3      H2            -14.0834887078       10.6301636235      -18.0222841586  W2        1903            0.0000000000
      5710      1904  TIP3      OH2            -3.4487387078       13.3311336235      -21.4958041586  W2        1904            0.0000000000
      5711      1904  TIP3      H1             -3.8894687078       12.6107336235      -21.0452441586  W2        1904            0.0000000000
      5712      1904  TIP3      H2             -3.4617687078       14.0518536235      -20.8660341586  W2        1904            0.0000000000
      5713      1905  TIP3      OH2           -13.8629487078       14.4561936235      -19.6694141586  W2        1905            0.0000000000
      5714      1905  TIP3      H1            -14.2324287078       13.6542436235      -20.0389841586  W2        1905            0.0000000000
      5715      1905  TIP3      H2            -12.9218387078       14.2876836235      -19.6230741586  W2        1905            0.0000000000
      5716      1906  TIP3      OH2           -17.2528987078        8.1164536235      -24.2765341586  W2        1906            0.0000000000
      5717      1906  TIP3      H1            -17.7005587078        8.9623236235      -24.2948841586  W2        1906            0.0000000000
      5718      1906  TIP3      H2            -17.8137787078        7.5368736235      -24.7920241586  W2        1906            0.0000000000
      5719      1907  TIP3      OH2           -16.5422887078       10.2784136235      -22.1507341586  W2        1907            0.0000000000
      5720      1907  TIP3      H1            -16.3289387078        9.5085736235      -21.6234341586  W2        1907            0.0000000000
      5721      1907  TIP3      H2            -15.8045287078       10.3680836235      -22.7539741586  W2        1907            0.0000000000
      5722      1908  TIP3      OH2            -6.3371887078       18.4353036235      -21.2837641586  W2        1908            0.0000000000
      5723      1908  TIP3      H1             -5.7175487078       17.7587736235      -21.5568441586  W2        1908            0.0000000000
      5724      1908  TIP3      H2             -6.5454487078       18.2173836235      -20.3752741586  W2        1908            0.0000000000
      5725      1909  TIP3      OH2            -8.7653187078       12.8242336235      -19.3912141586  W2        1909            0.0000000000
      5726      1909  TIP3      H1             -8.4615287078       12.1383736235      -19.9858041586  W2        1909            0.0000000000
      5727      1909  TIP3      H2             -8.0439187078       12.9431036235      -18.7734141586  W2        1909            0.0000000000
      5728      1910  TIP3      OH2            -0.1023387078        4.4257636235      -18.5305941586  W2        1910            0.0000000000
      5729      1910  TIP3      H1             -0.0531187078        5.0358836235      -17.7946841586  W2        1910            0.0000000000
      5730      1910  TIP3      H2              0.3231712922        4.8868536235      -19.2534841586  W2        1910            0.0000000000
      5731      1911  TIP3      OH2            -5.6246187078        7.2184736235      -19.0637341586  W2        1911            0.0000000000
      5732      1911  TIP3      H1             -5.4820287078        6.2721736235      -19.0435741586  W2        1911            0.0000000000
      5733      1911  TIP3      H2             -5.7307187078        7.4254536235      -19.9922441586  W2        1911            0.0000000000
      5734      1912  TIP3      OH2           -12.4697887078        5.3201136235      -21.7912541586  W2        1912            0.0000000000
      5735      1912  TIP3      H1            -12.4266787078        6.1799636235      -22.2096241586  W2        1912            0.0000000000
      5736      1912  TIP3      H2            -12.9273787078        4.7675836235      -22.4249341586  W2        1912            0.0000000000
      5737      1913  TIP3      OH2            -4.7475187078        5.4506736235      -23.3904241586  W2        1913            0.0000000000
      5738      1913  TIP3      H1             -4.1010887078        5.1219936235      -22.7656641586  W2        1913            0.0000000000
      5739      1913  TIP3      H2             -4.2375787078        5.9685736235      -24.0132841586  W2        1913            0.0000000000
      5740      1914  TIP3      OH2           -15.8496387078        7.7166936235      -21.0291141586  W2        1914            0.0000000000
      5741      1914  TIP3      H1            -15.1959787078        7.1668636235      -20.5971041586  W2        1914            0.0000000000
      5742      1914  TIP3      H2            -15.8257087078        7.4425936235      -21.9459141586  W2        1914            0.0000000000
      5743      1915  TIP3      OH2           -10.6931887078        9.2668236235      -21.8139641586  W2        1915            0.0000000000
      5744      1915  TIP3      H1            -10.0770887078        8.7403636235      -21.3045641586  W2        1915            0.0000000000
      5745      1915  TIP3      H2            -11.2793087078        8.6266936235      -22.2176041586  W2        1915            0.0000000000
      5746      1916  TIP3      OH2             0.2891212922        5.9036836235      -16.2946141586  W2        1916            0.0000000000
      5747      1916  TIP3      H1             -0.3994187078        6.5617536235      -16.3899541586  W2        1916            0.0000000000
      5748      1916  TIP3      H2              0.3045812922        5.7064736235      -15.3580741586  W2        1916            0.0000000000
      5749      1917  TIP3      OH2           -13.6595987078        4.2379536235      -17.7171741586  W2        1917            0.0000000000
      5750      1917  TIP3      H1            -13.8784287078        4.7680136235      -18.4835741586  W2        1917            0.0000000000
      5751      1917  TIP3      H2            -14.3275087078        4.4645036235      -17.0700341586  W2        1917            0.0000000000
      5752      1918  TIP3      OH2            -6.2906187078       13.7380636235      -24.1732641586  W2        1918            0.0000000000
      5753      1918  TIP3      H1             -6.5861087078       13.4152936235      -25.0245741586  W2        1918            0.0000000000
      5754      1918  TIP3      H2             -6.6148387078       14.6377336235      -24.1320041586  W2        1918            0.0000000000
      5755      1919  TIP3      OH2           -11.0904587078       11.9135236235      -17.4298041586  W2        1919            0.0000000000
      5756      1919  TIP3      H1            -11.8305487078       12.5116736235      -17.3262841586  W2        1919            0.0000000000
      5757      1919  TIP3      H2            -10.3765087078       12.4674836235      -17.7454441586  W2        1919            0.0000000000
      5758      1920  TIP3      OH2            -2.9836787078        4.7416036235      -21.4098341586  W2        1920            0.0000000000
      5759      1920  TIP3      H1             -3.1988787078        3.9759436235      -20.8772341586  W2        1920            0.0000000000
      5760      1920  TIP3      H2             -2.3279387078        5.2140636235      -20.8969841586  W2        1920            0.0000000000
      5761      1921  TIP3      OH2           -14.0658687078        6.1301336235      -19.7649541586  W2        1921            0.0000000000
      5762      1921  TIP3      H1            -13.4522387078        6.7628936235      -19.3917141586  W2        1921            0.0000000000
      5763      1921  TIP3      H2            -13.5537987078        5.6576336235      -20.4212641586  W2        1921            0.0000000000
      5764      1922  TIP3      OH2           -12.6830287078       13.8778236235      -16.6426541586  W2        1922            0.0000000000
      5765      1922  TIP3      H1            -12.6882687078       14.7571736235      -17.0207241586  W2        1922            0.0000000000
      5766      1922  TIP3      H2            -13.5366187078       13.7942336235      -16.2176641586  W2        1922            0.0000000000
      5767      1923  TIP3      OH2           -16.5619387078       13.5486136235      -25.8607241586  W2        1923            0.0000000000
      5768      1923  TIP3      H1            -16.8338487078       13.7777136235      -26.7494341586  W2        1923            0.0000000000
      5769      1923  TIP3      H2            -16.5163687078       14.3864936235      -25.4001941586  W2        1923            0.0000000000
      5770      1924  TIP3      OH2            -2.9369687078       15.1702036235      -19.1478741586  W2        1924            0.0000000000
      5771      1924  TIP3      H1             -3.8785987078       15.2285936235      -18.9861841586  W2        1924            0.0000000000
      5772      1924  TIP3      H2             -2.6603587078       16.0762536235      -19.2849041586  W2        1924            0.0000000000
      5773      1925  TIP3      OH2            -2.6362687078        3.4567336235      -17.7304841586  W2        1925            0.0000000000
      5774      1925  TIP3      H1             -3.3723487078        4.0674436235      -17.7683541586  W2        1925            0.0000000000
      5775      1925  TIP3      H2             -1.9528687078        3.8716336235      -18.2568441586  W2        1925            0.0000000000
      5776      1926  TIP3      OH2            -9.6331287078        1.5434636235      -20.2646841586  W2        1926            0.0000000000
      5777      1926  TIP3      H1             -9.7507087078        0.5950636235      -20.3188541586  W2        1926            0.0000000000
      5778      1926  TIP3      H2            -10.4881187078        1.8760736235      -19.9915741586  W2        1926            0.0000000000
      5779      1927  TIP3      OH2            -4.6848487078       16.9515536235      -22.5227141586  W2        1927            0.0000000000
      5780      1927  TIP3      H1             -4.2596187078       16.2443436235      -23.0077541586  W2        1927            0.0000000000
      5781      1927  TIP3      H2             -4.3678487078       17.7528236235      -22.9394941586  W2        1927            0.0000000000
      5782      1928  TIP3      OH2            -3.5251987078       14.8524036235      -24.0140541586  W2        1928            0.0000000000
      5783      1928  TIP3      H1             -3.7827187078       14.1624136235      -24.6254641586  W2        1928            0.0000000000
      5784      1928  TIP3      H2             -3.4541187078       14.4095236235      -23.1684641586  W2        1928            0.0000000000
      5785      1929  TIP3      OH2            -1.8391787078       13.4190736235      -15.5367041586  W2        1929            0.0000000000
      5786      1929  TIP3      H1             -1.6995487078       12.8273236235      -16.2760041586  W2        1929            0.0000000000
      5787      1929  TIP3      H2             -1.6718987078       14.2916636235      -15.8928241586  W2        1929            0.0000000000
      5788      1930  TIP3      OH2            -7.3666387078       10.3810236235      -25.7641041586  W2        1930            0.0000000000
      5789      1930  TIP3      H1             -8.0780887078       10.9159936235      -26.1160541586  W2        1930            0.0000000000
      5790      1930  TIP3      H2             -6.6756787078       10.4362336235      -26.4242141586  W2        1930            0.0000000000
      5791      1931  TIP3      OH2            -7.3127187078        8.8384536235      -28.7256041586  W2        1931            0.0000000000
      5792      1931  TIP3      H1             -6.6117287078        8.8611436235      -28.0742041586  W2        1931            0.0000000000
      5793      1931  TIP3      H2             -7.0104287078        8.2104236235      -29.3816741586  W2        1931            0.0000000000
      5794      1932  TIP3      OH2             0.0027512922        9.7588736235      -17.4706641586  W2        1932            0.0000000000
      5795      1932  TIP3      H1             -0.6498387078       10.4534336235      -17.3815741586  W2        1932            0.0000000000
      5796      1932  TIP3      H2              0.4677812922        9.9689636235      -18.2805041586  W2        1932            0.0000000000
      5797      1933  TIP3      OH2            -3.9608687078       10.5903536235      -24.8125141586  W2        1933            0.0000000000
      5798      1933  TIP3      H1             -4.6927687078       10.8187236235      -24.2394541586  W2        1933            0.0000000000
      5799      1933  TIP3      H2             -3.5136487078        9.8766236235      -24.3577641586  W2        1933            0.0000000000
      5800      1934  TIP3      OH2            -4.0635187078        8.7646136235      -15.7448141586  W2        1934            0.0000000000
      5801      1934  TIP3      H1             -3.9836087078        9.5280536235      -15.1729641586  W2        1934            0.0000000000
      5802      1934  TIP3      H2             -4.6647487078        9.0438536235      -16.4353041586  W2        1934            0.0000000000
      5803      1935  TIP3      OH2           -12.3154987078       11.2209736235      -22.9300141586  W2        1935            0.0000000000
      5804      1935  TIP3      H1            -12.6459787078       10.8503136235      -23.7483141586  W2        1935            0.0000000000
      5805      1935  TIP3      H2            -11.7270887078       10.5503736235      -22.5831841586  W2        1935            0.0000000000
      5806      1936  TIP3      OH2           -10.9487487078       14.6490336235      -20.2487941586  W2        1936            0.0000000000
      5807      1936  TIP3      H1            -11.0436187078       14.0703436235      -21.0053341586  W2        1936            0.0000000000
      5808      1936  TIP3      H2            -10.2193887078       14.2776036235      -19.7525141586  W2        1936            0.0000000000
      5809      1937  TIP3      OH2           -11.9489487078        9.9895336235      -19.2965141586  W2        1937            0.0000000000
      5810      1937  TIP3      H1            -11.3836987078       10.1109536235      -20.0593941586  W2        1937            0.0000000000
      5811      1937  TIP3      H2            -11.6300587078       10.6270336235      -18.6576641586  W2        1937            0.0000000000
      5812      1938  TIP3      OH2            -5.6397287078       15.4927236235      -18.5624641586  W2        1938            0.0000000000
      5813      1938  TIP3      H1             -5.8800687078       16.1550336235      -17.9145441586  W2        1938            0.0000000000
      5814      1938  TIP3      H2             -5.8379087078       14.6582436235      -18.1375041586  W2        1938            0.0000000000
      5815      1939  TIP3      OH2           -11.0688787078       14.3888036235      -14.5793241586  W2        1939            0.0000000000
      5816      1939  TIP3      H1            -11.3801287078       15.1711236235      -14.1240041586  W2        1939            0.0000000000
      5817      1939  TIP3      H2            -11.7188587078       14.2357136235      -15.2651241586  W2        1939            0.0000000000
      5818      1940  TIP3      OH2            -5.0899187078        9.7526436235      -27.1273941586  W2        1940            0.0000000000
      5819      1940  TIP3      H1             -4.5103687078        9.9026736235      -26.3805041586  W2        1940            0.0000000000
      5820      1940  TIP3      H2             -4.6759187078       10.2233836235      -27.8507541586  W2        1940            0.0000000000
      5821      1941  TIP3      OH2           -14.1488887078       10.5869136235      -15.3507541586  W2        1941            0.0000000000
      5822      1941  TIP3      H1            -14.0785687078       11.2375936235      -14.6522541586  W2        1941            0.0000000000
      5823      1941  TIP3      H2            -15.0396687078       10.6896636235      -15.6856641586  W2        1941            0.0000000000
      5824      1942  TIP3      OH2            -7.3634287078       16.4894936235      -23.6920841586  W2        1942            0.0000000000
      5825      1942  TIP3      H1             -6.8896687078       16.7851236235      -22.9146641586  W2        1942            0.0000000000
      5826      1942  TIP3      H2             -7.9264987078       17.2276536235      -23.9251241586  W2        1942            0.0000000000
      5827      1943  TIP3      OH2           -12.8292887078       16.4603036235      -13.8159441586  W2        1943            0.0000000000
      5828      1943  TIP3      H1            -12.8217587078       16.3242736235      -14.7633941586  W2        1943            0.0000000000
      5829      1943  TIP3      H2            -13.7452487078       16.3431136235      -13.5639441586  W2        1943            0.0000000000
      5830      1944  TIP3      OH2            -1.3910787078        1.5026836235      -27.3144241586  W2        1944            0.0000000000
      5831      1944  TIP3      H1             -2.2910087078        1.6415836235      -27.0193641586  W2        1944            0.0000000000
      5832      1944  TIP3      H2             -1.1392387078        2.3341436235      -27.7162541586  W2        1944            0.0000000000
      5833      1945  TIP3      OH2           -13.3252287078       10.2904036235      -25.3407341586  W2        1945            0.0000000000
      5834      1945  TIP3      H1            -13.6170987078       11.0585736235      -25.8316041586  W2        1945            0.0000000000
      5835      1945  TIP3      H2            -13.9997087078        9.6310236235      -25.5035941586  W2        1945            0.0000000000
      5836      1946  TIP3      OH2            -0.2019387078       15.8689236235      -28.9380341586  W2        1946            0.0000000000
      5837      1946  TIP3      H1             -0.1285887078       16.8079436235      -28.7675041586  W2        1946            0.0000000000
      5838      1946  TIP3      H2              0.7035712922       15.5637836235      -28.9943041586  W2        1946            0.0000000000
      5839      1947  TIP3      OH2           -17.2322187078       12.6533236235      -16.5257541586  W2        1947            0.0000000000
      5840      1947  TIP3      H1            -17.7333787078       12.6252636235      -17.3407841586  W2        1947            0.0000000000
      5841      1947  TIP3      H2            -17.2268487078       11.7476436235      -16.2160241586  W2        1947            0.0000000000
      5842      1948  TIP3      OH2           -17.4819487078       15.4337036235      -19.6417341586  W2        1948            0.0000000000
      5843      1948  TIP3      H1            -16.5358887078       15.2894036235      -19.6607841586  W2        1948            0.0000000000
      5844      1948  TIP3      H2            -17.5943187078       16.2179836235      -19.1046141586  W2        1948            0.0000000000
      5845      1949  TIP3      OH2             0.7159012922       16.0996736235      -13.9593641586  W2        1949            0.0000000000
      5846      1949  TIP3      H1              0.6665812922       15.1444836235      -13.9966041586  W2        1949            0.0000000000
      5847      1949  TIP3      H2             -0.1108687078       16.3672036235      -13.5579841586  W2        1949            0.0000000000
      5848      1950  TIP3      OH2            -8.3056987078       15.6735936235      -15.0832241586  W2        1950            0.0000000000
      5849      1950  TIP3      H1             -8.2182387078       16.5000536235      -14.6083141586  W2        1950            0.0000000000
      5850      1950  TIP3      H2             -9.1691887078       15.3439736235      -14.8342941586  W2        1950            0.0000000000
      5851      1951  TIP3      OH2            -7.8911187078       19.4459636235      -25.2771641586  W2        1951            0.0000000000
      5852      1951  TIP3      H1             -7.9665187078       19.3246836235      -26.2236441586  W2        1951            0.0000000000
      5853      1951  TIP3      H2             -7.8582487078       20.3952336235      -25.1587041586  W2        1951            0.0000000000
      5854      1952  TIP3      OH2           -14.2377387078       18.2346636235      -23.4962641586  W2        1952            0.0000000000
      5855      1952  TIP3      H1            -14.0856987078       17.8867036235      -22.6176141586  W2        1952            0.0000000000
      5856      1952  TIP3      H2            -15.0886987078       17.8783936235      -23.7515441586  W2        1952            0.0000000000
      5857      1953  TIP3      OH2            -4.7895187078       18.5999836235      -28.2749241586  W2        1953            0.0000000000
      5858      1953  TIP3      H1             -4.4146787078       17.8555936235      -28.7456641586  W2        1953            0.0000000000
      5859      1953  TIP3      H2             -4.7851487078       18.3300436235      -27.3565941586  W2        1953            0.0000000000
      5860      1954  TIP3      OH2            -5.1207087078       18.5256936235      -25.5257041586  W2        1954            0.0000000000
      5861      1954  TIP3      H1             -6.0557287078       18.6258836235      -25.3470041586  W2        1954            0.0000000000
      5862      1954  TIP3      H2             -4.8405187078       17.8162936235      -24.9473841586  W2        1954            0.0000000000
      5863      1955  TIP3      OH2            -2.1321187078        7.5929236235      -13.4791441586  W2        1955            0.0000000000
      5864      1955  TIP3      H1             -2.5394387078        8.0734836235      -14.1998141586  W2        1955            0.0000000000
      5865      1955  TIP3      H2             -2.0915487078        6.6875236235      -13.7870641586  W2        1955            0.0000000000
      5866      1956  TIP3      OH2           -14.9831687078       13.9768636235      -15.4824741586  W2        1956            0.0000000000
      5867      1956  TIP3      H1            -14.7670387078       13.6154236235      -14.6228941586  W2        1956            0.0000000000
      5868      1956  TIP3      H2            -15.8386987078       13.6022436235      -15.6921241586  W2        1956            0.0000000000
      5869      1957  TIP3      OH2           -12.3643687078        2.4469136235      -19.4870541586  W2        1957            0.0000000000
      5870      1957  TIP3      H1            -13.2259987078        2.3597336235      -19.8947641586  W2        1957            0.0000000000
      5871      1957  TIP3      H2            -12.3867987078        3.3029236235      -19.0592941586  W2        1957            0.0000000000
      5872      1958  TIP3      OH2            -7.7015887078        2.1689536235      -16.1123541586  W2        1958            0.0000000000
      5873      1958  TIP3      H1             -7.2812787078        1.7536636235      -15.3592941586  W2        1958            0.0000000000
      5874      1958  TIP3      H2             -8.6346287078        1.9902836235      -15.9951541586  W2        1958            0.0000000000
      5875      1959  TIP3      OH2            -4.3750987078        5.9244736235      -15.2589041586  W2        1959            0.0000000000
      5876      1959  TIP3      H1             -4.8891487078        5.7986936235      -14.4613041586  W2        1959            0.0000000000
      5877      1959  TIP3      H2             -4.5306287078        6.8367836235      -15.5032841586  W2        1959            0.0000000000
      5878      1960  TIP3      OH2            -3.6126087078       10.7854736235      -29.4976041586  W2        1960            0.0000000000
      5879      1960  TIP3      H1             -3.5705287078       10.5628636235      -30.4276041586  W2        1960            0.0000000000
      5880      1960  TIP3      H2             -2.7633987078       11.1841836235      -29.3076141586  W2        1960            0.0000000000
      5881      1961  TIP3      OH2            -8.0398587078        4.6612936235      -28.8272741586  W2        1961            0.0000000000
      5882      1961  TIP3      H1             -8.2933787078        4.6804536235      -27.9044641586  W2        1961            0.0000000000
      5883      1961  TIP3      H2             -8.2966487078        3.7898336235      -29.1286541586  W2        1961            0.0000000000
      5884      1962  TIP3      OH2           -12.2733587078        7.4123636235      -18.3920341586  W2        1962            0.0000000000
      5885      1962  TIP3      H1            -12.9151487078        7.3720936235      -17.6830241586  W2        1962            0.0000000000
      5886      1962  TIP3      H2            -12.2361587078        8.3388336235      -18.6297341586  W2        1962            0.0000000000
      5887      1963  TIP3      OH2           -12.2764487078        7.6333736235      -23.4800341586  W2        1963            0.0000000000
      5888      1963  TIP3      H1            -13.1691587078        7.2929836235      -23.5386541586  W2        1963            0.0000000000
      5889      1963  TIP3      H2            -11.8257887078        7.2564636235      -24.2357141586  W2        1963            0.0000000000
      5890      1964  TIP3      OH2            -6.7408987078        8.0494036235      -24.6629541586  W2        1964            0.0000000000
      5891      1964  TIP3      H1             -7.1498687078        8.8642636235      -24.9544741586  W2        1964            0.0000000000
      5892      1964  TIP3      H2             -6.0202787078        7.9094136235      -25.2772441586  W2        1964            0.0000000000
      5893      1965  TIP3      OH2            -7.6387387078        8.2250436235      -13.1748841586  W2        1965            0.0000000000
      5894      1965  TIP3      H1             -8.2013587078        7.5202036235      -12.8541041586  W2        1965            0.0000000000
      5895      1965  TIP3      H2             -6.8123987078        8.1042336235      -12.7071241586  W2        1965            0.0000000000
      5896      1966  TIP3      OH2            -5.7361287078        7.4954436235      -21.8489841586  W2        1966            0.0000000000
      5897      1966  TIP3      H1             -5.9316787078        8.1011236235      -22.5639241586  W2        1966            0.0000000000
      5898      1966  TIP3      H2             -5.5548687078        6.6619636235      -22.2833541586  W2        1966            0.0000000000
      5899      1967  TIP3      OH2           -14.5233087078        7.7327136235      -16.5248341586  W2        1967            0.0000000000
      5900      1967  TIP3      H1            -14.5613687078        8.1328736235      -15.6561241586  W2        1967            0.0000000000
      5901      1967  TIP3      H2            -15.0141987078        6.9159536235      -16.4345441586  W2        1967            0.0000000000
      5902      1968  TIP3      OH2           -11.1575687078        5.1069436235      -29.7262341586  W2        1968            0.0000000000
      5903      1968  TIP3      H1            -11.5884987078        4.6619536235      -28.9964941586  W2        1968            0.0000000000
      5904      1968  TIP3      H2            -11.8756987078        5.4785736235      -30.2384841586  W2        1968            0.0000000000
      5905      1969  TIP3      OH2           -17.9152287078        4.8488936235      -22.6743641586  W2        1969            0.0000000000
      5906      1969  TIP3      H1            -17.2844587078        4.8201036235      -21.9549741586  W2        1969            0.0000000000
      5907      1969  TIP3      H2            -17.4657987078        4.4237636235      -23.4047741586  W2        1969            0.0000000000
      5908      1970  TIP3      OH2           -16.6410187078        5.5950936235      -27.2503241586  W2        1970            0.0000000000
      5909      1970  TIP3      H1            -16.1668487078        6.1860836235      -27.8352341586  W2        1970            0.0000000000
      5910      1970  TIP3      H2            -17.3583787078        6.1253836235      -26.9033141586  W2        1970            0.0000000000
      5911      1971  TIP3      OH2            -6.4722087078        9.1335736235      -17.1777441586  W2        1971            0.0000000000
      5912      1971  TIP3      H1             -6.1487287078        8.5025436235      -17.8206941586  W2        1971            0.0000000000
      5913      1971  TIP3      H2             -6.9122787078        8.5987936235      -16.5170041586  W2        1971            0.0000000000
      5914      1972  TIP3      OH2            -9.6949187078        5.0611236235      -22.3936241586  W2        1972            0.0000000000
      5915      1972  TIP3      H1            -10.6058087078        5.1178036235      -22.1050241586  W2        1972            0.0000000000
      5916      1972  TIP3      H2             -9.1896287078        5.0006736235      -21.5829041586  W2        1972            0.0000000000
      5917      1973  TIP3      OH2           -14.8665787078        6.6897536235      -23.5668641586  W2        1973            0.0000000000
      5918      1973  TIP3      H1            -15.7557787078        6.7893036235      -23.9069041586  W2        1973            0.0000000000
      5919      1973  TIP3      H2            -14.5700887078        5.8480536235      -23.9130741586  W2        1973            0.0000000000
      5920      1974  TIP3      OH2           -11.2133987078        6.6900136235      -25.9104041586  W2        1974            0.0000000000
      5921      1974  TIP3      H1            -10.2818487078        6.8190136235      -25.7320941586  W2        1974            0.0000000000
      5922      1974  TIP3      H2            -11.4283687078        7.3594436235      -26.5599341586  W2        1974            0.0000000000
      5923      1975  TIP3      OH2            -5.2897287078        4.2957536235      -19.1294441586  W2        1975            0.0000000000
      5924      1975  TIP3      H1             -5.9665687078        4.4270636235      -18.4654741586  W2        1975            0.0000000000
      5925      1975  TIP3      H2             -5.7752387078        4.1407036235      -19.9396741586  W2        1975            0.0000000000
      5926      1976  TIP3      OH2           -12.5393787078        7.8842336235      -28.3437941586  W2        1976            0.0000000000
      5927      1976  TIP3      H1            -13.0818687078        7.5046136235      -29.0350341586  W2        1976            0.0000000000
      5928      1976  TIP3      H2            -11.7058887078        8.0787036235      -28.7723841586  W2        1976            0.0000000000
      5929      1977  TIP3      OH2            -2.0022187078       19.9672936235      -12.8526841586  W2        1977            0.0000000000
      5930      1977  TIP3      H1             -1.8023487078       20.3914836235      -13.6871541586  W2        1977            0.0000000000
      5931      1977  TIP3      H2             -1.3468487078       20.3111136235      -12.2456441586  W2        1977            0.0000000000
      5932      1978  TIP3      OH2           -14.4042387078       12.4414236235      -13.2446341586  W2        1978            0.0000000000
      5933      1978  TIP3      H1            -13.6719987078       12.6960136235      -12.6831841586  W2        1978            0.0000000000
      5934      1978  TIP3      H2            -15.1843687078       12.6459636235      -12.7290941586  W2        1978            0.0000000000
      5935      1979  TIP3      OH2            -8.3749487078        7.8484236235      -20.5066641586  W2        1979            0.0000000000
      5936      1979  TIP3      H1             -7.8106087078        7.3020836235      -21.0537041586  W2        1979            0.0000000000
      5937      1979  TIP3      H2             -8.5226087078        7.3266136235      -19.7179041586  W2        1979            0.0000000000
      5938      1980  TIP3      OH2           -13.3729787078        3.9850336235      -24.0881841586  W2        1980            0.0000000000
      5939      1980  TIP3      H1            -13.6900287078        3.0825636235      -24.1236441586  W2        1980            0.0000000000
      5940      1980  TIP3      H2            -12.5915687078        3.9867736235      -24.6410241586  W2        1980            0.0000000000
      5941      1981  TIP3      OH2            -9.7483587078        6.2370336235      -18.0926241586  W2        1981            0.0000000000
      5942      1981  TIP3      H1            -10.5838287078        6.6909836235      -17.9823841586  W2        1981            0.0000000000
      5943      1981  TIP3      H2             -9.2242987078        6.5128836235      -17.3406341586  W2        1981            0.0000000000
      5944      1982  TIP3      OH2            -9.2040987078       12.4498036235      -26.4079841586  W2        1982            0.0000000000
      5945      1982  TIP3      H1             -9.9489987078       11.9423336235      -26.7301941586  W2        1982            0.0000000000
      5946      1982  TIP3      H2             -9.3383787078       12.4986036235      -25.4615041586  W2        1982            0.0000000000
      5947      1983  TIP3      OH2            -2.0542087078       11.5826236235      -17.6212241586  W2        1983            0.0000000000
      5948      1983  TIP3      H1             -1.4123287078       12.0392536235      -18.1650041586  W2        1983            0.0000000000
      5949      1983  TIP3      H2             -2.8845187078       11.6958636235      -18.0838141586  W2        1983            0.0000000000
      5950      1984  TIP3      OH2            -5.3064187078        5.2637936235      -28.2087241586  W2        1984            0.0000000000
      5951      1984  TIP3      H1             -6.2449987078        5.3753536235      -28.3598441586  W2        1984            0.0000000000
      5952      1984  TIP3      H2             -5.0092087078        6.1204836235      -27.9021541586  W2        1984            0.0000000000
      5953      1985  TIP3      OH2            -7.6848887078       12.6341336235      -15.1710741586  W2        1985            0.0000000000
      5954      1985  TIP3      H1             -8.0302787078       12.2523736235      -14.3641141586  W2        1985            0.0000000000
      5955      1985  TIP3      H2             -7.8848787078       13.5674936235      -15.0997841586  W2        1985            0.0000000000
      5956      1986  TIP3      OH2            -4.5880687078        7.1310636235      -26.5479841586  W2        1986            0.0000000000
      5957      1986  TIP3      H1             -3.6961687078        6.9935636235      -26.2288641586  W2        1986            0.0000000000
      5958      1986  TIP3      H2             -4.5317087078        7.9216736235      -27.0846341586  W2        1986            0.0000000000
      5959      1987  TIP3      OH2           -14.0792687078       11.7448036235      -20.6381941586  W2        1987            0.0000000000
      5960      1987  TIP3      H1            -13.3345487078       11.7423736235      -21.2395441586  W2        1987            0.0000000000
      5961      1987  TIP3      H2            -14.0016087078       10.9211836235      -20.1566841586  W2        1987            0.0000000000
      5962      1988  TIP3      OH2            -7.0786887078       13.9082336235      -27.3825241586  W2        1988            0.0000000000
      5963      1988  TIP3      H1             -7.3738487078       14.7350236235      -27.0010441586  W2        1988            0.0000000000
      5964      1988  TIP3      H2             -7.7816887078       13.2889236235      -27.1863841586  W2        1988            0.0000000000
      5965      1989  TIP3      OH2           -17.0712987078       10.2054936235      -15.3233441586  W2        1989            0.0000000000
      5966      1989  TIP3      H1            -16.8484387078        9.7874536235      -14.4915941586  W2        1989            0.0000000000
      5967      1989  TIP3      H2            -17.6732887078        9.5929936235      -15.7460641586  W2        1989            0.0000000000
      5968      1990  TIP3      OH2           -10.0548087078        9.7224836235      -13.1103741586  W2        1990            0.0000000000
      5969      1990  TIP3      H1            -10.3507287078        9.5567836235      -14.0054641586  W2        1990            0.0000000000
      5970      1990  TIP3      H2             -9.1232887078        9.5025136235      -13.1209841586  W2        1990            0.0000000000
      5971      1991  TIP3      OH2            -5.4345287078       15.0956836235      -15.2205741586  W2        1991            0.0000000000
      5972      1991  TIP3      H1             -6.3350987078       15.2789436235      -15.4881841586  W2        1991            0.0000000000
      5973      1991  TIP3      H2             -5.4004187078       15.3546136235      -14.2996941586  W2        1991            0.0000000000
      5974      1992  TIP3      OH2             0.2968012922        7.3404736235      -26.8533141586  W2        1992            0.0000000000
      5975      1992  TIP3      H1             -0.2575687078        6.9442736235      -27.5255641586  W2        1992            0.0000000000
      5976      1992  TIP3      H2              0.3971612922        8.2509936235      -27.1309841586  W2        1992            0.0000000000
      5977      1993  TIP3      OH2             0.2600012922       13.1406436235      -14.0161641586  W2        1993            0.0000000000
      5978      1993  TIP3      H1             -0.5911487078       13.3790236235      -14.3835241586  W2        1993            0.0000000000
      5979      1993  TIP3      H2              0.8503412922       13.1239636235      -14.7694541586  W2        1993            0.0000000000
      5980      1994  TIP3      OH2            -1.4080287078       16.1265136235      -26.3881041586  W2        1994            0.0000000000
      5981      1994  TIP3      H1             -1.7809187078       15.3008936235      -26.0790441586  W2        1994            0.0000000000
      5982      1994  TIP3      H2             -1.1306787078       15.9434536235      -27.2857641586  W2        1994            0.0000000000
      5983      1995  TIP3      OH2            -4.2476387078       10.9344636235      -19.3669141586  W2        1995            0.0000000000
      5984      1995  TIP3      H1             -5.1759487078       10.7026536235      -19.3939841586  W2        1995            0.0000000000
      5985      1995  TIP3      H2             -3.7965287078       10.1574436235      -19.6970341586  W2        1995            0.0000000000
      5986      1996  TIP3      OH2           -11.7043287078       15.2626236235      -23.2340441586  W2        1996            0.0000000000
      5987      1996  TIP3      H1            -11.1771087078       16.0360636235      -23.4341641586  W2        1996            0.0000000000
      5988      1996  TIP3      H2            -12.5844787078       15.4875436235      -23.5356441586  W2        1996            0.0000000000
      5989      1997  TIP3      OH2           -15.9495587078       10.1250336235      -28.6468041586  W2        1997            0.0000000000
      5990      1997  TIP3      H1            -15.3335687078       10.7517536235      -28.2673241586  W2        1997            0.0000000000
      5991      1997  TIP3      H2            -16.8112987078       10.4410136235      -28.3751541586  W2        1997            0.0000000000
      5992      1998  TIP3      OH2           -10.2770987078       12.9256136235      -23.6576141586  W2        1998            0.0000000000
      5993      1998  TIP3      H1            -10.5180987078       13.8510536235      -23.6160841586  W2        1998            0.0000000000
      5994      1998  TIP3      H2            -11.0177387078       12.4667436235      -23.2612241586  W2        1998            0.0000000000
      5995      1999  TIP3      OH2            -9.7624387078       17.0749736235      -17.3425041586  W2        1999            0.0000000000
      5996      1999  TIP3      H1             -9.3999687078       17.9295336235      -17.5760641586  W2        1999            0.0000000000
      5997      1999  TIP3      H2             -9.2309187078       16.7831336235      -16.6018741586  W2        1999            0.0000000000
      5998      2000  TIP3      OH2           -11.5940187078       17.9473736235      -24.1123941586  W2        2000            0.0000000000
      5999      2000  TIP3      H1            -12.5439687078       18.0531136235      -24.0610641586  W2        2000            0.0000000000
      6000      2000  TIP3      H2            -11.2422087078       18.7681136235      -23.7676441586  W2        2000            0.0000000000
      6001      2001  TIP3      OH2            -6.2183587078       13.1740436235      -17.6419441586  W2        2001            0.0000000000
      6002      2001  TIP3      H1             -6.6442287078       12.9462136235      -16.8155441586  W2        2001            0.0000000000
      6003      2001  TIP3      H2             -5.6377787078       12.4352236235      -17.8244141586  W2        2001            0.0000000000
      6004      2002  TIP3      OH2            -4.0154687078       14.1030936235      -28.5680441586  W2        2002            0.0000000000
      6005      2002  TIP3      H1             -3.6621587078       13.7230736235      -27.7636941586  W2        2002            0.0000000000
      6006      2002  TIP3      H2             -4.9641187078       14.0095736235      -28.4811141586  W2        2002            0.0000000000
      6007      2003  TIP3      OH2            -3.5599387078       17.7259936235      -15.1724641586  W2        2003            0.0000000000
      6008      2003  TIP3      H1             -4.1616187078       17.1702836235      -15.6678341586  W2        2003            0.0000000000
      6009      2003  TIP3      H2             -3.2785687078       18.3929736235      -15.7987241586  W2        2003            0.0000000000
      6010      2004  TIP3      OH2             0.4879712922       18.5823436235      -28.3670241586  W2        2004            0.0000000000
      6011      2004  TIP3      H1              1.2317612922       19.1683936235      -28.5068641586  W2        2004            0.0000000000
      6012      2004  TIP3      H2             -0.2062187078       19.1509236235      -28.0337841586  W2        2004            0.0000000000
      6013      2005  TIP3      OH2           -15.4373487078        4.9587636235      -15.7652041586  W2        2005            0.0000000000
      6014      2005  TIP3      H1            -16.3301187078        5.2973036235      -15.8328041586  W2        2005            0.0000000000
      6015      2005  TIP3      H2            -15.5360687078        4.1033736235      -15.3471241586  W2        2005            0.0000000000
      6016      2006  TIP3      OH2            -3.1495387078       12.7752936235      -26.3412541586  W2        2006            0.0000000000
      6017      2006  TIP3      H1             -3.4267787078       12.0472236235      -25.7851441586  W2        2006            0.0000000000
      6018      2006  TIP3      H2             -2.2222387078       12.8944936235      -26.1359941586  W2        2006            0.0000000000
      6019      2007  TIP3      OH2           -15.7861487078       16.7632036235      -17.3302641586  W2        2007            0.0000000000
      6020      2007  TIP3      H1            -15.5691187078       15.8314436235      -17.3612941586  W2        2007            0.0000000000
      6021      2007  TIP3      H2            -15.5397987078       17.0377036235      -16.4469841586  W2        2007            0.0000000000
      6022      2008  TIP3      OH2            -9.9246887078       15.2147036235      -30.1210441586  W2        2008            0.0000000000
      6023      2008  TIP3      H1             -9.6857087078       14.4665136235      -30.6681541586  W2        2008            0.0000000000
      6024      2008  TIP3      H2            -10.1935587078       14.8268736235      -29.2882641586  W2        2008            0.0000000000
      6025      2009  TIP3      OH2           -10.9876287078       14.7850836235      -27.6647841586  W2        2009            0.0000000000
      6026      2009  TIP3      H1            -10.8408287078       14.2650636235      -26.8746941586  W2        2009            0.0000000000
      6027      2009  TIP3      H2            -10.9904587078       15.6918436235      -27.3581941586  W2        2009            0.0000000000
      6028      2010  TIP3      OH2           -14.5345187078       12.0374136235      -27.1542441586  W2        2010            0.0000000000
      6029      2010  TIP3      H1            -15.2205887078       12.3896636235      -26.5872741586  W2        2010            0.0000000000
      6030      2010  TIP3      H2            -14.0117287078       12.8003736235      -27.4008141586  W2        2010            0.0000000000
      6031      2011  TIP3      OH2            -6.7030087078        4.6997936235      -16.8753441586  W2        2011            0.0000000000
      6032      2011  TIP3      H1             -6.0042187078        4.7736636235      -16.2253741586  W2        2011            0.0000000000
      6033      2011  TIP3      H2             -7.0838687078        3.8352936235      -16.7210541586  W2        2011            0.0000000000
      6034      2012  TIP3      OH2            -5.9185187078        4.3519636235      -25.7781141586  W2        2012            0.0000000000
      6035      2012  TIP3      H1             -5.6986887078        4.8235036235      -26.5815741586  W2        2012            0.0000000000
      6036      2012  TIP3      H2             -5.3601187078        4.7462236235      -25.1080541586  W2        2012            0.0000000000
      6037      2013  TIP3      OH2            -8.2499087078       16.4824436235      -26.9153641586  W2        2013            0.0000000000
      6038      2013  TIP3      H1             -9.0662987078       16.9794136235      -26.8629341586  W2        2013            0.0000000000
      6039      2013  TIP3      H2             -7.7202787078       16.9577936235      -27.5554841586  W2        2013            0.0000000000
      6040      2014  TIP3      OH2            -8.7185287078        6.0798436235      -24.9432741586  W2        2014            0.0000000000
      6041      2014  TIP3      H1             -7.9062687078        6.5841636235      -24.8971041586  W2        2014            0.0000000000
      6042      2014  TIP3      H2             -8.9632287078        5.9348136235      -24.0293141586  W2        2014            0.0000000000
      6043      2015  TIP3      OH2            -8.1828887078        7.0661136235      -15.7586141586  W2        2015            0.0000000000
      6044      2015  TIP3      H1             -8.0638587078        7.6396536235      -15.0015741586  W2        2015            0.0000000000
      6045      2015  TIP3      H2             -7.5274287078        6.3780536235      -15.6438341586  W2        2015            0.0000000000
      6046      2016  TIP3      OH2            -7.8348587078        3.1611436235      -24.0051641586  W2        2016            0.0000000000
      6047      2016  TIP3      H1             -8.1815087078        3.7782036235      -23.3607341586  W2        2016            0.0000000000
      6048      2016  TIP3      H2             -7.1761687078        3.6617136235      -24.4866141586  W2        2016            0.0000000000
      6049      2017  TIP3      OH2           -10.9115987078       17.5261636235      -26.9336741586  W2        2017            0.0000000000
      6050      2017  TIP3      H1            -10.7507287078       18.3259136235      -27.4344141586  W2        2017            0.0000000000
      6051      2017  TIP3      H2            -11.1088187078       17.8327636235      -26.0486141586  W2        2017            0.0000000000
      6052      2018  TIP3      OH2           -12.1771587078        4.2240836235      -27.3179141586  W2        2018            0.0000000000
      6053      2018  TIP3      H1            -12.2606787078        5.1123936235      -26.9712741586  W2        2018            0.0000000000
      6054      2018  TIP3      H2            -11.2871287078        3.9587536235      -27.0862341586  W2        2018            0.0000000000
      6055      2019  TIP3      OH2            -1.9783087078        4.9731436235      -14.9236441586  W2        2019            0.0000000000
      6056      2019  TIP3      H1             -2.8947287078        5.2353136235      -15.0112741586  W2        2019            0.0000000000
      6057      2019  TIP3      H2             -1.6428087078        4.9700436235      -15.8201141586  W2        2019            0.0000000000
      6058      2020  TIP3      OH2            -3.3762087078        8.7232436235      -20.8279141586  W2        2020            0.0000000000
      6059      2020  TIP3      H1             -4.1737687078        8.3082636235      -21.1564141586  W2        2020            0.0000000000
      6060      2020  TIP3      H2             -2.9310987078        8.0326136235      -20.3368641586  W2        2020            0.0000000000
      6061      2021  TIP3      OH2           -13.9186287078       14.6513036235      -28.2574641586  W2        2021            0.0000000000
      6062      2021  TIP3      H1            -13.3264787078       15.3507836235      -27.9812241586  W2        2021            0.0000000000
      6063      2021  TIP3      H2            -13.4593287078       14.2182536235      -28.9770041586  W2        2021            0.0000000000
      6064      2022  TIP3      OH2           -15.6027087078        7.3156036235      -29.1415241586  W2        2022            0.0000000000
      6065      2022  TIP3      H1            -15.6474487078        8.2549136235      -28.9628241586  W2        2022            0.0000000000
      6066      2022  TIP3      H2            -16.4903887078        7.0800936235      -29.4113141586  W2        2022            0.0000000000
      6067      2023  TIP3      OH2            -2.2897487078       17.9794936235      -19.2055641586  W2        2023            0.0000000000
      6068      2023  TIP3      H1             -2.4453187078       18.6579336235      -19.8626341586  W2        2023            0.0000000000
      6069      2023  TIP3      H2             -1.3571087078       18.0514236235      -19.0025041586  W2        2023            0.0000000000
      6070      2024  TIP3      OH2           -14.7945087078        2.0972636235      -20.4684241586  W2        2024            0.0000000000
      6071      2024  TIP3      H1            -15.0235287078        2.1565136235      -21.3959241586  W2        2024            0.0000000000
      6072      2024  TIP3      H2            -15.2371687078        1.3058136235      -20.1620141586  W2        2024            0.0000000000
      6073      2025  TIP3      OH2           -15.8641787078       16.0379736235      -24.3078441586  W2        2025            0.0000000000
      6074      2025  TIP3      H1            -16.6963187078       16.5102436235      -24.2807041586  W2        2025            0.0000000000
      6075      2025  TIP3      H2            -15.3183487078       16.5477336235      -24.9065341586  W2        2025            0.0000000000
      6076      2026  TIP3      OH2           -16.5758087078       18.6503436235      -12.9780441586  W2        2026            0.0000000000
      6077      2026  TIP3      H1            -16.0355887078       18.4337436235      -12.2181241586  W2        2026            0.0000000000
      6078      2026  TIP3      H2            -17.0570087078       17.8449436235      -13.1677941586  W2        2026            0.0000000000
      6079      2027  TIP3      OH2           -11.9784687078       17.5697836235      -11.3576241586  W2        2027            0.0000000000
      6080      2027  TIP3      H1            -11.2107487078       17.1108636235      -11.0167041586  W2        2027            0.0000000000
      6081      2027  TIP3      H2            -11.9998487078       17.3437636235      -12.2875041586  W2        2027            0.0000000000
      6082      2028  TIP3      OH2            -7.8865087078       17.0778436235      -29.9824441586  W2        2028            0.0000000000
      6083      2028  TIP3      H1             -8.5304087078       16.4467036235      -29.6610741586  W2        2028            0.0000000000
      6084      2028  TIP3      H2             -7.1246787078       16.5466436235      -30.2140941586  W2        2028            0.0000000000
      6085      2029  TIP3      OH2            -5.4015987078       15.9498936235      -12.6284741586  W2        2029            0.0000000000
      6086      2029  TIP3      H1             -5.7526487078       15.0931936235      -12.3854341586  W2        2029            0.0000000000
      6087      2029  TIP3      H2             -4.6752787078       16.0925636235      -12.0215741586  W2        2029            0.0000000000
      6088      2030  TIP3      OH2            -3.2822187078       16.8948336235      -29.7486441586  W2        2030            0.0000000000
      6089      2030  TIP3      H1             -2.9991787078       16.1003536235      -29.2959541586  W2        2030            0.0000000000
      6090      2030  TIP3      H2             -2.5424287078       17.1279336235      -30.3095341586  W2        2030            0.0000000000
      6091      2031  TIP3      OH2           -16.6688587078       12.4607536235      -12.0236141586  W2        2031            0.0000000000
      6092      2031  TIP3      H1            -16.5248087078       11.5588236235      -12.3099441586  W2        2031            0.0000000000
      6093      2031  TIP3      H2            -17.4411187078       12.7469636235      -12.5113841586  W2        2031            0.0000000000
      6094      2032  TIP3      OH2           -12.3274887078       12.8043236235      -29.8911541586  W2        2032            0.0000000000
      6095      2032  TIP3      H1            -12.2630787078       12.0102836235      -29.3605141586  W2        2032            0.0000000000
      6096      2032  TIP3      H2            -11.6745687078       12.6856036235      -30.5809541586  W2        2032            0.0000000000
      6097      2033  TIP3      OH2           -10.0132487078       12.4305636235      -12.5909741586  W2        2033            0.0000000000
      6098      2033  TIP3      H1            -10.3418687078       12.7013736235      -13.4482341586  W2        2033            0.0000000000
      6099      2033  TIP3      H2             -9.8614287078       11.4895436235      -12.6784741586  W2        2033            0.0000000000
      6100      2034  TIP3      OH2            -6.9751487078       13.8514936235      -30.1553541586  W2        2034            0.0000000000
      6101      2034  TIP3      H1             -7.2437387078       14.0317036235      -29.2544641586  W2        2034            0.0000000000
      6102      2034  TIP3      H2             -7.1815887078       12.9261136235      -30.2867741586  W2        2034            0.0000000000
      6103      2035  TIP3      OH2            -4.2787287078       12.3462936235      -15.2077441586  W2        2035            0.0000000000
      6104      2035  TIP3      H1             -3.5332487078       12.9346636235      -15.3273441586  W2        2035            0.0000000000
      6105      2035  TIP3      H2             -5.0360487078       12.9282636235      -15.1444341586  W2        2035            0.0000000000
      6106      2036  TIP3      OH2           -15.8362087078        9.6610836235      -12.6036841586  W2        2036            0.0000000000
      6107      2036  TIP3      H1            -15.4280887078        8.8037436235      -12.7246241586  W2        2036            0.0000000000
      6108      2036  TIP3      H2            -16.0964487078        9.6752136235      -11.6826541586  W2        2036            0.0000000000
      6109      2037  TIP3      OH2           -11.1781087078       10.7769436235      -27.5853541586  W2        2037            0.0000000000
      6110      2037  TIP3      H1            -11.6379087078       10.2927736235      -26.8995041586  W2        2037            0.0000000000
      6111      2037  TIP3      H2            -10.9232387078       10.1084836235      -28.2213041586  W2        2037            0.0000000000
      6112      2038  TIP3      OH2           -11.8891787078        8.6696536235      -15.2293941586  W2        2038            0.0000000000
      6113      2038  TIP3      H1            -12.5075687078        9.3443136235      -14.9489241586  W2        2038            0.0000000000
      6114      2038  TIP3      H2            -11.5450587078        8.9910436235      -16.0627741586  W2        2038            0.0000000000
      6115      2039  TIP3      OH2           -10.1070687078        9.0201236235      -29.3230341586  W2        2039            0.0000000000
      6116      2039  TIP3      H1            -10.2875687078        8.8652436235      -30.2502041586  W2        2039            0.0000000000
      6117      2039  TIP3      H2             -9.1570187078        9.1279936235      -29.2782441586  W2        2039            0.0000000000
      6118      2040  TIP3      OH2            -6.8693587078       11.1411836235      -11.9519141586  W2        2040            0.0000000000
      6119      2040  TIP3      H1             -5.9162387078       11.2250936235      -11.9793141586  W2        2040            0.0000000000
      6120      2040  TIP3      H2             -7.0298987078       10.4293636235      -11.3324241586  W2        2040            0.0000000000
      6121      2041  TIP3      OH2            -0.7172387078       11.3745436235      -29.8772241586  W2        2041            0.0000000000
      6122      2041  TIP3      H1             -0.9907587078       10.9500936235      -30.6903941586  W2        2041            0.0000000000
      6123      2041  TIP3      H2             -0.6778287078       12.3059936235      -30.0941841586  W2        2041            0.0000000000
      6124      2042  TIP3      OH2           -11.5498087078        6.0247336235      -14.1470841586  W2        2042            0.0000000000
      6125      2042  TIP3      H1            -11.3997187078        5.2958636235      -14.7491141586  W2        2042            0.0000000000
      6126      2042  TIP3      H2            -11.5475687078        6.8019036235      -14.7058641586  W2        2042            0.0000000000
      6127      2043  TIP3      OH2           -11.1372387078        4.3943136235      -16.6543441586  W2        2043            0.0000000000
      6128      2043  TIP3      H1            -10.6014887078        4.8459836235      -17.3064141586  W2        2043            0.0000000000
      6129      2043  TIP3      H2            -11.9892787078        4.2862936235      -17.0769341586  W2        2043            0.0000000000
      6130      2044  TIP3      OH2            -9.5553987078        9.8339336235      -16.4148241586  W2        2044            0.0000000000
      6131      2044  TIP3      H1             -8.8049187078        9.6776836235      -16.9880441586  W2        2044            0.0000000000
      6132      2044  TIP3      H2             -9.8945687078       10.6855936235      -16.6902741586  W2        2044            0.0000000000
      6133      2045  TIP3      OH2            -5.1397787078        7.6491136235      -11.3862941586  W2        2045            0.0000000000
      6134      2045  TIP3      H1             -4.9476487078        6.7180536235      -11.4978441586  W2        2045            0.0000000000
      6135      2045  TIP3      H2             -4.2821487078        8.0740636235      -11.3967541586  W2        2045            0.0000000000
      6136      2046  TIP3      OH2            -3.8230587078       10.4376336235      -13.3090241586  W2        2046            0.0000000000
      6137      2046  TIP3      H1             -4.1045587078       11.1470936235      -13.8866441586  W2        2046            0.0000000000
      6138      2046  TIP3      H2             -2.8806287078       10.3649336235      -13.4599041586  W2        2046            0.0000000000
      6139      2047  TIP3      OH2           -13.0711787078        7.2230836235      -12.2355241586  W2        2047            0.0000000000
      6140      2047  TIP3      H1            -13.8382787078        6.6905636235      -12.4457641586  W2        2047            0.0000000000
      6141      2047  TIP3      H2            -12.3922787078        6.9131236235      -12.8348941586  W2        2047            0.0000000000
      6142      2048  TIP3      OH2           -10.3316887078        1.8508836235      -16.2229841586  W2        2048            0.0000000000
      6143      2048  TIP3      H1            -10.4297287078        2.7972036235      -16.3283641586  W2        2048            0.0000000000
      6144      2048  TIP3      H2            -11.0740687078        1.4782636235      -16.6986341586  W2        2048            0.0000000000
      6145      2049  TIP3      OH2            -9.0676387078        6.1724236235      -12.6591441586  W2        2049            0.0000000000
      6146      2049  TIP3      H1             -9.3030987078        5.9530936235      -11.7576541586  W2        2049            0.0000000000
      6147      2049  TIP3      H2             -9.8509487078        5.9655436235      -13.1688941586  W2        2049            0.0000000000
      6148      2050  TIP3      OH2            -6.3519787078        5.2997736235      -13.5837941586  W2        2050            0.0000000000
      6149      2050  TIP3      H1             -7.2994387078        5.3317436235      -13.4514641586  W2        2050            0.0000000000
      6150      2050  TIP3      H2             -6.0393087078        4.6744836235      -12.9299741586  W2        2050            0.0000000000
      6151      2051  TIP3      OH2            -4.7178287078        3.9338836235      -11.5786041586  W2        2051            0.0000000000
      6152      2051  TIP3      H1             -4.8146487078        2.9816136235      -11.5844141586  W2        2051            0.0000000000
      6153      2051  TIP3      H2             -5.0395187078        4.2025636235      -10.7180541586  W2        2051            0.0000000000
      6154      2052  TIP3      OH2           -14.8908987078        5.1434636235      -12.5310541586  W2        2052            0.0000000000
      6155      2052  TIP3      H1            -14.6791587078        4.4370736235      -13.1413041586  W2        2052            0.0000000000
      6156      2052  TIP3      H2            -15.0021487078        4.7060636235      -11.6869341586  W2        2052            0.0000000000
      6157      2053  TIP3      OH2           -10.1098787078        1.1446236235      -13.5517041586  W2        2053            0.0000000000
      6158      2053  TIP3      H1             -9.3980387078        0.5048436235      -13.5657941586  W2        2053            0.0000000000
      6159      2053  TIP3      H2            -10.2108387078        1.4114536235      -14.4653941586  W2        2053            0.0000000000
      6160      2054  TIP3      OH2            -9.7561287078        2.8274636235      -11.4980741586  W2        2054            0.0000000000
      6161      2054  TIP3      H1             -9.8879087078        2.3518436235      -12.3182241586  W2        2054            0.0000000000
      6162      2054  TIP3      H2            -10.3553887078        3.5718236235      -11.5533641586  W2        2054            0.0000000000
      6163      2055  TIP3      OH2           -10.2098987078       19.7104936235      -28.3216741586  W2        2055            0.0000000000
      6164      2055  TIP3      H1             -9.2768287078       19.8683636235      -28.1778341586  W2        2055            0.0000000000
      6165      2055  TIP3      H2            -10.4740187078       20.3857936235      -28.9465241586  W2        2055            0.0000000000
      6166      2056  TIP3      OH2           -16.6414087078       14.3468736235      -28.8388641586  W2        2056            0.0000000000
      6167      2056  TIP3      H1            -15.7274887078       14.4257636235      -28.5654741586  W2        2056            0.0000000000
      6168      2056  TIP3      H2            -16.6340987078       13.6598336235      -29.5053041586  W2        2056            0.0000000000
      6169      2057  TIP3      OH2           -17.9923487078       19.7397236235      -23.7614741586  W2        2057            0.0000000000
      6170      2057  TIP3      H1            -18.6396387078       19.2778936235      -24.2943541586  W2        2057            0.0000000000
      6171      2057  TIP3      H2            -17.6378887078       19.0680536235      -23.1788541586  W2        2057            0.0000000000
      6172      2058  TIP3      OH2           -17.1224287078       17.8204236235      -21.9568541586  W2        2058            0.0000000000
      6173      2058  TIP3      H1            -17.4567487078       16.9401536235      -21.7848341586  W2        2058            0.0000000000
      6174      2058  TIP3      H2            -16.9001887078       18.1659236235      -21.0922941586  W2        2058            0.0000000000
      6175      2059  TIP3      OH2             0.4260512922       18.6300636235      -18.9763741586  W2        2059            0.0000000000
      6176      2059  TIP3      H1              0.4047212922       18.8149036235      -18.0374341586  W2        2059            0.0000000000
      6177      2059  TIP3      H2              1.1166712922       19.1984636235      -19.3172341586  W2        2059            0.0000000000
      6178      2060  TIP3      OH2            -0.0106587078       18.1971736235      -16.0544641586  W2        2060            0.0000000000
      6179      2060  TIP3      H1             -0.4977887078       17.4615836235      -16.4257241586  W2        2060            0.0000000000
      6180      2060  TIP3      H2              0.5386112922       17.8035636235      -15.3765241586  W2        2060            0.0000000000
      6181      2061  TIP3      OH2            -1.5599287078       13.9869836235      -11.4164341586  W2        2061            0.0000000000
      6182      2061  TIP3      H1             -2.4258187078       13.8819536235      -11.0222041586  W2        2061            0.0000000000
      6183      2061  TIP3      H2             -1.1833387078       14.7453136235      -10.9699641586  W2        2061            0.0000000000
      6184      2062  TIP3      OH2            -0.2589587078       12.2433536235      -25.9021841586  W2        2062            0.0000000000
      6185      2062  TIP3      H1              0.5911812922       12.6644436235      -25.7750241586  W2        2062            0.0000000000
      6186      2062  TIP3      H2             -0.2534487078       11.5033636235      -25.2950441586  W2        2062            0.0000000000
      6187      2063  TIP3      OH2             0.1356012922       10.2970936235      -24.0786141586  W2        2063            0.0000000000
      6188      2063  TIP3      H1             -0.5909387078        9.8173536235      -23.6808541586  W2        2063            0.0000000000
      6189      2063  TIP3      H2              0.7169312922       10.5025636235      -23.3464541586  W2        2063            0.0000000000
      6190      2064  TIP3      OH2            -0.1052787078       13.0818436235      -19.1308541586  W2        2064            0.0000000000
      6191      2064  TIP3      H1              0.7281412922       12.7038436235      -19.4114941586  W2        2064            0.0000000000
      6192      2064  TIP3      H2              0.0067512922       14.0249636235      -19.2499441586  W2        2064            0.0000000000
      6193      2065  TIP3      OH2            -1.6190487078       15.9595936235      -16.8240141586  W2        2065            0.0000000000
      6194      2065  TIP3      H1             -2.2665187078       16.2847436235      -16.1984941586  W2        2065            0.0000000000
      6195      2065  TIP3      H2             -2.1366487078       15.5193636235      -17.4981841586  W2        2065            0.0000000000
      6196      2066  TIP3      OH2             0.4039112922       10.1979436235      -27.6874841586  W2        2066            0.0000000000
      6197      2066  TIP3      H1             -0.1179787078       10.5543536235      -28.4063941586  W2        2066            0.0000000000
      6198      2066  TIP3      H2              0.3708312922       10.8727236235      -27.0093941586  W2        2066            0.0000000000
      6199      2067  TIP3      OH2            -1.2471887078        7.4375036235      -29.1367741586  W2        2067            0.0000000000
      6200      2067  TIP3      H1             -1.1507487078        8.1042036235      -29.8168041586  W2        2067            0.0000000000
      6201      2067  TIP3      H2             -1.3872287078        6.6221336235      -29.6182241586  W2        2067            0.0000000000
      6202      2068  TIP3      OH2            -2.0777187078        8.8177436235      -23.5157441586  W2        2068            0.0000000000
      6203      2068  TIP3      H1             -2.2278387078        7.8726036235      -23.5359641586  W2        2068            0.0000000000
      6204      2068  TIP3      H2             -2.4312687078        9.0988836235      -22.6718341586  W2        2068            0.0000000000
      6205      2069  TIP3      OH2           -17.0424787078       10.8959636235      -19.5053641586  W2        2069            0.0000000000
      6206      2069  TIP3      H1            -16.8581887078       10.8141336235      -20.4410741586  W2        2069            0.0000000000
      6207      2069  TIP3      H2            -16.1931887078       10.7716636235      -19.0817241586  W2        2069            0.0000000000
      6208      2070  TIP3      OH2            -1.2214287078       10.7880736235      -13.8769141586  W2        2070            0.0000000000
      6209      2070  TIP3      H1             -0.6386987078       10.0533036235      -13.6851941586  W2        2070            0.0000000000
      6210      2070  TIP3      H2             -0.6574987078       11.5601036235      -13.8303341586  W2        2070            0.0000000000
      6211      2071  TIP3      OH2             0.2752812922        8.6906536235      -13.1923741586  W2        2071            0.0000000000
      6212      2071  TIP3      H1             -0.5880487078        8.3118636235      -13.3579041586  W2        2071            0.0000000000
      6213      2071  TIP3      H2              0.8796512922        7.9521336235      -13.2667941586  W2        2071            0.0000000000
      6214      2072  TIP3      OH2            -1.9998087078        4.8454836235      -30.0192241586  W2        2072            0.0000000000
      6215      2072  TIP3      H1             -1.3892287078        4.4741636235      -29.3824041586  W2        2072            0.0000000000
      6216      2072  TIP3      H2             -2.8366587078        4.4241736235      -29.8232241586  W2        2072            0.0000000000
      6217      2073  TIP3      OH2            -2.3672387078        6.4003236235      -25.0532341586  W2        2073            0.0000000000
      6218      2073  TIP3      H1             -2.0875287078        5.4933636235      -24.9290641586  W2        2073            0.0000000000
      6219      2073  TIP3      H2             -1.6080687078        6.8344736235      -25.4423141586  W2        2073            0.0000000000
      6220      2074  TIP3      OH2            -1.7554087078        6.9820636235      -19.6173441586  W2        2074            0.0000000000
      6221      2074  TIP3      H1             -0.8226087078        7.1940536235      -19.6517441586  W2        2074            0.0000000000
      6222      2074  TIP3      H2             -1.9906587078        7.0832736235      -18.6950441586  W2        2074            0.0000000000
      6223      2075  TIP3      OH2            -1.7262187078        7.7185936235      -16.8414041586  W2        2075            0.0000000000
      6224      2075  TIP3      H1             -2.5690887078        7.9866336235      -16.4754241586  W2        2075            0.0000000000
      6225      2075  TIP3      H2             -1.2837887078        8.5407836235      -17.0522941586  W2        2075            0.0000000000
      6226      2076  TIP3      OH2           -17.4449987078        6.1664636235      -13.3644841586  W2        2076            0.0000000000
      6227      2076  TIP3      H1            -16.5255087078        6.0442936235      -13.1281741586  W2        2076            0.0000000000
      6228      2076  TIP3      H2            -17.8945487078        5.4164336235      -12.9751341586  W2        2076            0.0000000000
      6229      2077  TIP3      OH2             0.5569412922        1.6986136235      -11.4879041586  W2        2077            0.0000000000
      6230      2077  TIP3      H1              0.9066412922        1.0449636235      -12.0934341586  W2        2077            0.0000000000
      6231      2077  TIP3      H2              0.7038912922        2.5360236235      -11.9276441586  W2        2077            0.0000000000
      6232      2078  TIP3      OH2            -1.7537587078        3.6632536235      -25.0050341586  W2        2078            0.0000000000
      6233      2078  TIP3      H1             -1.5712587078        3.2144036235      -24.1795341586  W2        2078            0.0000000000
      6234      2078  TIP3      H2             -2.3534687078        3.0786936235      -25.4685741586  W2        2078            0.0000000000
      6235      2079  TIP3      OH2           -16.2237487078        4.4786236235      -20.4731941586  W2        2079            0.0000000000
      6236      2079  TIP3      H1            -15.7785887078        3.6868736235      -20.1712241586  W2        2079            0.0000000000
      6237      2079  TIP3      H2            -15.7574487078        5.1951436235      -20.0426341586  W2        2079            0.0000000000
      6238      2080  TIP3      OH2           -17.9197187078        7.4779236235      -19.4041741586  W2        2080            0.0000000000
      6239      2080  TIP3      H1            -17.4277387078        7.2569736235      -20.1949741586  W2        2080            0.0000000000
      6240      2080  TIP3      H2            -17.5576287078        8.3182636235      -19.1232241586  W2        2080            0.0000000000
      6241      2081  TIP3      OH2             0.0766612922        3.8080736235      -13.1387741586  W2        2081            0.0000000000
      6242      2081  TIP3      H1             -0.8407687078        4.0787836235      -13.1744241586  W2        2081            0.0000000000
      6243      2081  TIP3      H2              0.1996012922        3.2729136235      -13.9228041586  W2        2081            0.0000000000
      6244      2082  TIP3      OH2             0.1128612922        3.7310636235      -28.4770041586  W2        2082            0.0000000000
      6245      2082  TIP3      H1              0.5251212922        3.0096336235      -28.9522041586  W2        2082            0.0000000000
      6246      2082  TIP3      H2              0.7945112922        4.4005236235      -28.4185741586  W2        2082            0.0000000000
      6247      2083  TIP3      OH2           -17.6060687078        3.7358336235      -25.3499341586  W2        2083            0.0000000000
      6248      2083  TIP3      H1            -18.5312287078        3.9444936235      -25.4793841586  W2        2083            0.0000000000
      6249      2083  TIP3      H2            -17.1520787078        4.2199136235      -26.0397041586  W2        2083            0.0000000000
      6250      2084  TIP3      OH2            -2.8353487078       18.7200036235      -23.4041941586  W2        2084            0.0000000000
      6251      2084  TIP3      H1             -2.1830587078       18.3722136235      -24.0122841586  W2        2084            0.0000000000
      6252      2084  TIP3      H2             -2.3249687078       19.2083236235      -22.7582241586  W2        2084            0.0000000000
      6253      2085  TIP3      OH2           -17.6425287078        2.4737336235      -17.0056841586  W2        2085            0.0000000000
      6254      2085  TIP3      H1            -18.3074787078        2.2277636235      -16.3625941586  W2        2085            0.0000000000
      6255      2085  TIP3      H2            -18.0853987078        3.0957736235      -17.5828841586  W2        2085            0.0000000000
      6256      2086  TIP3      OH2           -15.4505987078       15.6491436235      -12.8611041586  W2        2086            0.0000000000
      6257      2086  TIP3      H1            -16.2713487078       15.8237936235      -13.3216341586  W2        2086            0.0000000000
      6258      2086  TIP3      H2            -15.7028187078       15.5756136235      -11.9406641586  W2        2086            0.0000000000
      6259      2087  TIP3      OH2           -12.4963087078       16.6232636235      -16.6027041586  W2        2087            0.0000000000
      6260      2087  TIP3      H1            -12.9211987078       17.4331136235      -16.8852441586  W2        2087            0.0000000000
      6261      2087  TIP3      H2            -11.5920287078       16.7086736235      -16.9047241586  W2        2087            0.0000000000
      6262      2088  TIP3      OH2            -8.1851687078       18.0222636235      -13.6433341586  W2        2088            0.0000000000
      6263      2088  TIP3      H1             -8.0004187078       17.6888736235      -12.7653041586  W2        2088            0.0000000000
      6264      2088  TIP3      H2             -7.3387187078       18.3321236235      -13.9654141586  W2        2088            0.0000000000
      6265      2089  TIP3      OH2            -5.8401287078       19.3081536235      -14.3991941586  W2        2089            0.0000000000
      6266      2089  TIP3      H1             -5.1632387078       18.6753836235      -14.6392741586  W2        2089            0.0000000000
      6267      2089  TIP3      H2             -5.5182487078       19.7092036235      -13.5918641586  W2        2089            0.0000000000
      6268      2090  TIP3      OH2            -0.9227487078        1.8977036235      -15.3196941586  W2        2090            0.0000000000
      6269      2090  TIP3      H1             -1.7353987078        2.2227336235      -15.7072241586  W2        2090            0.0000000000
      6270      2090  TIP3      H2             -0.6898987078        1.1375536235      -15.8527841586  W2        2090            0.0000000000
      6271      2091  TIP3      OH2           -15.0946387078       19.8796536235      -16.5551741586  W2        2091            0.0000000000
      6272      2091  TIP3      H1            -15.8149987078       20.3197536235      -17.0064041586  W2        2091            0.0000000000
      6273      2091  TIP3      H2            -15.4602387078       19.6291236235      -15.7067741586  W2        2091            0.0000000000
      6274      2092  TIP3      OH2           -12.6273787078       19.4800436235      -17.5254541586  W2        2092            0.0000000000
      6275      2092  TIP3      H1            -13.4921587078       19.5518936235      -17.1214441586  W2        2092            0.0000000000
      6276      2092  TIP3      H2            -12.6824787078       20.0267736235      -18.3092041586  W2        2092            0.0000000000
      6277      2093  TIP3      OH2            -7.9168187078       19.3679336235      -18.3498541586  W2        2093            0.0000000000
      6278      2093  TIP3      H1             -8.3734187078       19.8969036235      -19.0040141586  W2        2093            0.0000000000
      6279      2093  TIP3      H2             -7.7540187078       19.9710736235      -17.6246241586  W2        2093            0.0000000000
      6280      2094  TIP3      OH2            -5.5891887078       18.2458936235      -17.4048241586  W2        2094            0.0000000000
      6281      2094  TIP3      H1             -6.4938187078       18.4109136235      -17.6706141586  W2        2094            0.0000000000
      6282      2094  TIP3      H2             -5.1603287078       19.0991136235      -17.4704841586  W2        2094            0.0000000000
      6283      2095  TIP3      OH2            -2.9849987078       19.8158036235      -17.1100441586  W2        2095            0.0000000000
      6284      2095  TIP3      H1             -3.1667987078       20.7316936235      -17.3205541586  W2        2095            0.0000000000
      6285      2095  TIP3      H2             -2.8082187078       19.4055136235      -17.9565841586  W2        2095            0.0000000000
      6286      2096  TIP3      OH2           -15.6798287078       18.5029036235      -19.6449941586  W2        2096            0.0000000000
      6287      2096  TIP3      H1            -15.6982287078       18.0774136235      -18.7877641586  W2        2096            0.0000000000
      6288      2096  TIP3      H2            -14.8750387078       18.1844036235      -20.0537741586  W2        2096            0.0000000000
      6289      2097  TIP3      OH2           -13.5385187078       17.2127736235      -20.9900041586  W2        2097            0.0000000000
      6290      2097  TIP3      H1            -13.7574487078       16.2965136235      -20.8204041586  W2        2097            0.0000000000
      6291      2097  TIP3      H2            -12.7142987078       17.3528136235      -20.5238641586  W2        2097            0.0000000000
      6292      2098  TIP3      OH2           -11.0012687078       17.6827036235      -20.1412041586  W2        2098            0.0000000000
      6293      2098  TIP3      H1            -10.7886987078       16.7946036235      -20.4281141586  W2        2098            0.0000000000
      6294      2098  TIP3      H2            -10.9367587078       17.6484736235      -19.1868041586  W2        2098            0.0000000000
      6295      2099  TIP3      OH2            -7.4928987078        3.3467636235      -20.9968741586  W2        2099            0.0000000000
      6296      2099  TIP3      H1             -8.1672187078        2.7173236235      -20.7412941586  W2        2099            0.0000000000
      6297      2099  TIP3      H2             -6.9289787078        2.8626536235      -21.6000841586  W2        2099            0.0000000000
      6298      2100  TIP3      OH2            -2.3501787078        1.4541636235      -20.8841641586  W2        2100            0.0000000000
      6299      2100  TIP3      H1             -1.7464187078        2.0017036235      -21.3860641586  W2        2100            0.0000000000
      6300      2100  TIP3      H2             -3.2199787078        1.7732036235      -21.1247541586  W2        2100            0.0000000000
      6301      2101  TIP3      OH2            -0.6231387078        2.5930336235      -22.5510741586  W2        2101            0.0000000000
      6302      2101  TIP3      H1             -0.0113887078        2.0786036235      -23.0777141586  W2        2101            0.0000000000
      6303      2101  TIP3      H2             -0.2407987078        3.4702436235      -22.5276341586  W2        2101            0.0000000000
      6304      2102  TIP3      OH2           -15.1661487078        1.9807936235      -23.1748841586  W2        2102            0.0000000000
      6305      2102  TIP3      H1            -15.9431687078        1.7462836235      -23.6822941586  W2        2102            0.0000000000
      6306      2102  TIP3      H2            -14.6357887078        1.1840036235      -23.1660841586  W2        2102            0.0000000000
      6307      2103  TIP3      OH2           -16.3298087078        1.7786036235      -27.3712741586  W2        2103            0.0000000000
      6308      2103  TIP3      H1            -15.8907387078        2.3896536235      -27.9629241586  W2        2103            0.0000000000
      6309      2103  TIP3      H2            -16.9635687078        2.3170136235      -26.8972741586  W2        2103            0.0000000000
      6310      2104  TIP3      OH2           -10.5868887078        1.9075036235      -23.3615741586  W2        2104            0.0000000000
      6311      2104  TIP3      H1             -9.7125487078        2.2959336235      -23.3911441586  W2        2104            0.0000000000
      6312      2104  TIP3      H2            -10.7228087078        1.6922836235      -22.4388541586  W2        2104            0.0000000000
      6313      2105  TIP3      OH2            -5.0300487078        1.9374836235      -21.7124041586  W2        2105            0.0000000000
      6314      2105  TIP3      H1             -4.9538887078        2.0326436235      -22.6618041586  W2        2105            0.0000000000
      6315      2105  TIP3      H2             -5.3051287078        1.0297736235      -21.5834941586  W2        2105            0.0000000000
      6316      2106  TIP3      OH2            -3.6767887078        1.9632636235      -26.0199041586  W2        2106            0.0000000000
      6317      2106  TIP3      H1             -4.3796787078        2.5781836235      -26.2297641586  W2        2106            0.0000000000
      6318      2106  TIP3      H2             -4.1216487078        1.1259336235      -25.8888141586  W2        2106            0.0000000000
      6319      2107  TIP3      OH2           -16.4288587078       17.7268236235      -26.4737641586  W2        2107            0.0000000000
      6320      2107  TIP3      H1            -17.1138687078       17.6887136235      -27.1412541586  W2        2107            0.0000000000
      6321      2107  TIP3      H2            -16.4251387078       18.6395836235      -26.1855541586  W2        2107            0.0000000000
      6322      2108  TIP3      OH2           -14.4688987078        3.6947536235      -28.9288641586  W2        2108            0.0000000000
      6323      2108  TIP3      H1            -13.9775587078        3.0649936235      -29.4563141586  W2        2108            0.0000000000
      6324      2108  TIP3      H2            -13.8452687078        3.9906936235      -28.2657441586  W2        2108            0.0000000000
      6325      2109  TIP3      OH2            -9.4428887078        3.9879036235      -26.4718141586  W2        2109            0.0000000000
      6326      2109  TIP3      H1             -9.2647587078        3.3412236235      -25.7889541586  W2        2109            0.0000000000
      6327      2109  TIP3      H2             -9.4962687078        4.8216736235      -26.0047041586  W2        2109            0.0000000000
      6328      2110  TIP3      OH2            -7.5645087078       18.9363136235      -28.0761441586  W2        2110            0.0000000000
      6329      2110  TIP3      H1             -6.6984887078       19.3030536235      -28.2543241586  W2        2110            0.0000000000
      6330      2110  TIP3      H2             -7.8112287078       18.4971136235      -28.8900641586  W2        2110            0.0000000000
      6331      2111  TIP3      OH2            -0.8555487078       18.4993436235      -25.3970341586  W2        2111            0.0000000000
      6332      2111  TIP3      H1             -1.0498387078       17.7515536235      -25.9620741586  W2        2111            0.0000000000
      6333      2111  TIP3      H2             -0.8945387078       19.2573536235      -25.9802441586  W2        2111            0.0000000000
      6334      2112  TIP3      OH2           -15.2083487078        2.4949836235      -13.6572641586  W2        2112            0.0000000000
      6335      2112  TIP3      H1            -15.5745287078        1.7292436235      -13.2147941586  W2        2112            0.0000000000
      6336      2112  TIP3      H2            -14.2954987078        2.5240036235      -13.3707541586  W2        2112            0.0000000000
      6337      2113  TIP3      OH2           -13.2352687078        1.8454236235      -12.1215541586  W2        2113            0.0000000000
      6338      2113  TIP3      H1            -12.3369087078        1.5714436235      -12.3062141586  W2        2113            0.0000000000
      6339      2113  TIP3      H2            -13.6219587078        1.1030236235      -11.6572941586  W2        2113            0.0000000000
      6340      2114  TIP3      OH2           -14.6107387078       18.6469036235      -29.4485541586  W2        2114            0.0000000000
      6341      2114  TIP3      H1            -14.8782787078       18.9331936235      -28.5752441586  W2        2114            0.0000000000
      6342      2114  TIP3      H2            -13.8394787078       18.1008236235      -29.2963041586  W2        2114            0.0000000000
      6343      2115  TIP3      OH2            -4.8140387078        1.1779536235      -11.9392741586  W2        2115            0.0000000000
      6344      2115  TIP3      H1             -4.7373187078        0.7520236235      -11.0855041586  W2        2115            0.0000000000
      6345      2115  TIP3      H2             -3.9203787078        1.1914236235      -12.2819241586  W2        2115            0.0000000000
      6346      2116  TIP3      OH2            -1.6379287078       17.2505836235      -13.2468541586  W2        2116            0.0000000000
      6347      2116  TIP3      H1             -2.4197387078       17.0643836235      -13.7667941586  W2        2116            0.0000000000
      6348      2116  TIP3      H2             -1.7099387078       18.1800136235      -13.0296041586  W2        2116            0.0000000000
      6349      2117  TIP3      OH2            12.7681112922       11.1370236235      -23.2161341586  W2        2117            0.0000000000
      6350      2117  TIP3      H1             12.8572212922       12.0808436235      -23.3484241586  W2        2117            0.0000000000
      6351      2117  TIP3      H2             12.1298712922       10.8616636235      -23.8741941586  W2        2117            0.0000000000
      6352      2118  TIP3      OH2            11.7012412922       10.3920936235      -19.7973141586  W2        2118            0.0000000000
      6353      2118  TIP3      H1             11.6629912922        9.7457236235      -19.0923541586  W2        2118            0.0000000000
      6354      2118  TIP3      H2             11.3788912922        9.9255336235      -20.5684441586  W2        2118            0.0000000000
      6355      2119  TIP3      OH2             4.0697412922       10.0063036235      -18.2043241586  W2        2119            0.0000000000
      6356      2119  TIP3      H1              4.1109512922        9.3806336235      -17.4810841586  W2        2119            0.0000000000
      6357      2119  TIP3      H2              4.7725112922       10.6301636235      -18.0222841586  W2        2119            0.0000000000
      6358      2120  TIP3      OH2            15.4072612922       13.3311336235      -21.4958041586  W2        2120            0.0000000000
      6359      2120  TIP3      H1             14.9665312922       12.6107336235      -21.0452441586  W2        2120            0.0000000000
      6360      2120  TIP3      H2             15.3942312922       14.0518536235      -20.8660341586  W2        2120            0.0000000000
      6361      2121  TIP3      OH2             4.9930512922       14.4561936235      -19.6694141586  W2        2121            0.0000000000
      6362      2121  TIP3      H1              4.6235712922       13.6542436235      -20.0389841586  W2        2121            0.0000000000
      6363      2121  TIP3      H2              5.9341612922       14.2876836235      -19.6230741586  W2        2121            0.0000000000
      6364      2122  TIP3      OH2             1.6031012922        8.1164536235      -24.2765341586  W2        2122            0.0000000000
      6365      2122  TIP3      H1              1.1554412922        8.9623236235      -24.2948841586  W2        2122            0.0000000000
      6366      2122  TIP3      H2              1.0422212922        7.5368736235      -24.7920241586  W2        2122            0.0000000000
      6367      2123  TIP3      OH2             2.3137112922       10.2784136235      -22.1507341586  W2        2123            0.0000000000
      6368      2123  TIP3      H1              2.5270612922        9.5085736235      -21.6234341586  W2        2123            0.0000000000
      6369      2123  TIP3      H2              3.0514712922       10.3680836235      -22.7539741586  W2        2123            0.0000000000
      6370      2124  TIP3      OH2            12.5188112922       18.4353036235      -21.2837641586  W2        2124            0.0000000000
      6371      2124  TIP3      H1             13.1384512922       17.7587736235      -21.5568441586  W2        2124            0.0000000000
      6372      2124  TIP3      H2             12.3105512922       18.2173836235      -20.3752741586  W2        2124            0.0000000000
      6373      2125  TIP3      OH2            10.0906812922       12.8242336235      -19.3912141586  W2        2125            0.0000000000
      6374      2125  TIP3      H1             10.3944712922       12.1383736235      -19.9858041586  W2        2125            0.0000000000
      6375      2125  TIP3      H2             10.8120812922       12.9431036235      -18.7734141586  W2        2125            0.0000000000
      6376      2126  TIP3      OH2            18.7536612922        4.4257636235      -18.5305941586  W2        2126            0.0000000000
      6377      2126  TIP3      H1             18.8028812922        5.0358836235      -17.7946841586  W2        2126            0.0000000000
      6378      2126  TIP3      H2             19.1791712922        4.8868536235      -19.2534841586  W2        2126            0.0000000000
      6379      2127  TIP3      OH2            13.2313812922        7.2184736235      -19.0637341586  W2        2127            0.0000000000
      6380      2127  TIP3      H1             13.3739712922        6.2721736235      -19.0435741586  W2        2127            0.0000000000
      6381      2127  TIP3      H2             13.1252812922        7.4254536235      -19.9922441586  W2        2127            0.0000000000
      6382      2128  TIP3      OH2             6.3862112922        5.3201136235      -21.7912541586  W2        2128            0.0000000000
      6383      2128  TIP3      H1              6.4293212922        6.1799636235      -22.2096241586  W2        2128            0.0000000000
      6384      2128  TIP3      H2              5.9286212922        4.7675836235      -22.4249341586  W2        2128            0.0000000000
      6385      2129  TIP3      OH2            14.1084812922        5.4506736235      -23.3904241586  W2        2129            0.0000000000
      6386      2129  TIP3      H1             14.7549112922        5.1219936235      -22.7656641586  W2        2129            0.0000000000
      6387      2129  TIP3      H2             14.6184212922        5.9685736235      -24.0132841586  W2        2129            0.0000000000
      6388      2130  TIP3      OH2             3.0063612922        7.7166936235      -21.0291141586  W2        2130            0.0000000000
      6389      2130  TIP3      H1              3.6600212922        7.1668636235      -20.5971041586  W2        2130            0.0000000000
      6390      2130  TIP3      H2              3.0302912922        7.4425936235      -21.9459141586  W2        2130            0.0000000000
      6391      2131  TIP3      OH2             8.1628112922        9.2668236235      -21.8139641586  W2        2131            0.0000000000
      6392      2131  TIP3      H1              8.7789112922        8.7403636235      -21.3045641586  W2        2131            0.0000000000
      6393      2131  TIP3      H2              7.5766912922        8.6266936235      -22.2176041586  W2        2131            0.0000000000
      6394      2132  TIP3      OH2            19.1451212922        5.9036836235      -16.2946141586  W2        2132            0.0000000000
      6395      2132  TIP3      H1             18.4565812922        6.5617536235      -16.3899541586  W2        2132            0.0000000000
      6396      2132  TIP3      H2             19.1605812922        5.7064736235      -15.3580741586  W2        2132            0.0000000000
      6397      2133  TIP3      OH2             5.1964012922        4.2379536235      -17.7171741586  W2        2133            0.0000000000
      6398      2133  TIP3      H1              4.9775712922        4.7680136235      -18.4835741586  W2        2133            0.0000000000
      6399      2133  TIP3      H2              4.5284912922        4.4645036235      -17.0700341586  W2        2133            0.0000000000
      6400      2134  TIP3      OH2            12.5653812922       13.7380636235      -24.1732641586  W2        2134            0.0000000000
      6401      2134  TIP3      H1             12.2698912922       13.4152936235      -25.0245741586  W2        2134            0.0000000000
      6402      2134  TIP3      H2             12.2411612922       14.6377336235      -24.1320041586  W2        2134            0.0000000000
      6403      2135  TIP3      OH2             7.7655412922       11.9135236235      -17.4298041586  W2        2135            0.0000000000
      6404      2135  TIP3      H1              7.0254512922       12.5116736235      -17.3262841586  W2        2135            0.0000000000
      6405      2135  TIP3      H2              8.4794912922       12.4674836235      -17.7454441586  W2        2135            0.0000000000
      6406      2136  TIP3      OH2            15.8723212922        4.7416036235      -21.4098341586  W2        2136            0.0000000000
      6407      2136  TIP3      H1             15.6571212922        3.9759436235      -20.8772341586  W2        2136            0.0000000000
      6408      2136  TIP3      H2             16.5280612922        5.2140636235      -20.8969841586  W2        2136            0.0000000000
      6409      2137  TIP3      OH2             4.7901312922        6.1301336235      -19.7649541586  W2        2137            0.0000000000
      6410      2137  TIP3      H1              5.4037612922        6.7628936235      -19.3917141586  W2        2137            0.0000000000
      6411      2137  TIP3      H2              5.3022012922        5.6576336235      -20.4212641586  W2        2137            0.0000000000
      6412      2138  TIP3      OH2             6.1729712922       13.8778236235      -16.6426541586  W2        2138            0.0000000000
      6413      2138  TIP3      H1              6.1677312922       14.7571736235      -17.0207241586  W2        2138            0.0000000000
      6414      2138  TIP3      H2              5.3193812922       13.7942336235      -16.2176641586  W2        2138            0.0000000000
      6415      2139  TIP3      OH2             2.2940612922       13.5486136235      -25.8607241586  W2        2139            0.0000000000
      6416      2139  TIP3      H1              2.0221512922       13.7777136235      -26.7494341586  W2        2139            0.0000000000
      6417      2139  TIP3      H2              2.3396312922       14.3864936235      -25.4001941586  W2        2139            0.0000000000
      6418      2140  TIP3      OH2            15.9190312922       15.1702036235      -19.1478741586  W2        2140            0.0000000000
      6419      2140  TIP3      H1             14.9774012922       15.2285936235      -18.9861841586  W2        2140            0.0000000000
      6420      2140  TIP3      H2             16.1956412922       16.0762536235      -19.2849041586  W2        2140            0.0000000000
      6421      2141  TIP3      OH2            16.2197312922        3.4567336235      -17.7304841586  W2        2141            0.0000000000
      6422      2141  TIP3      H1             15.4836512922        4.0674436235      -17.7683541586  W2        2141            0.0000000000
      6423      2141  TIP3      H2             16.9031312922        3.8716336235      -18.2568441586  W2        2141            0.0000000000
      6424      2142  TIP3      OH2             9.2228712922        1.5434636235      -20.2646841586  W2        2142            0.0000000000
      6425      2142  TIP3      H1              9.1052912922        0.5950636235      -20.3188541586  W2        2142            0.0000000000
      6426      2142  TIP3      H2              8.3678812922        1.8760736235      -19.9915741586  W2        2142            0.0000000000
      6427      2143  TIP3      OH2            14.1711512922       16.9515536235      -22.5227141586  W2        2143            0.0000000000
      6428      2143  TIP3      H1             14.5963812922       16.2443436235      -23.0077541586  W2        2143            0.0000000000
      6429      2143  TIP3      H2             14.4881512922       17.7528236235      -22.9394941586  W2        2143            0.0000000000
      6430      2144  TIP3      OH2            15.3308012922       14.8524036235      -24.0140541586  W2        2144            0.0000000000
      6431      2144  TIP3      H1             15.0732812922       14.1624136235      -24.6254641586  W2        2144            0.0000000000
      6432      2144  TIP3      H2             15.4018812922       14.4095236235      -23.1684641586  W2        2144            0.0000000000
      6433      2145  TIP3      OH2            17.0168212922       13.4190736235      -15.5367041586  W2        2145            0.0000000000
      6434      2145  TIP3      H1             17.1564512922       12.8273236235      -16.2760041586  W2        2145            0.0000000000
      6435      2145  TIP3      H2             17.1841012922       14.2916636235      -15.8928241586  W2        2145            0.0000000000
      6436      2146  TIP3      OH2            11.4893612922       10.3810236235      -25.7641041586  W2        2146            0.0000000000
      6437      2146  TIP3      H1             10.7779112922       10.9159936235      -26.1160541586  W2        2146            0.0000000000
      6438      2146  TIP3      H2             12.1803212922       10.4362336235      -26.4242141586  W2        2146            0.0000000000
      6439      2147  TIP3      OH2            11.5432812922        8.8384536235      -28.7256041586  W2        2147            0.0000000000
      6440      2147  TIP3      H1             12.2442712922        8.8611436235      -28.0742041586  W2        2147            0.0000000000
      6441      2147  TIP3      H2             11.8455712922        8.2104236235      -29.3816741586  W2        2147            0.0000000000
      6442      2148  TIP3      OH2            18.8587512922        9.7588736235      -17.4706641586  W2        2148            0.0000000000
      6443      2148  TIP3      H1             18.2061612922       10.4534336235      -17.3815741586  W2        2148            0.0000000000
      6444      2148  TIP3      H2             19.3237812922        9.9689636235      -18.2805041586  W2        2148            0.0000000000
      6445      2149  TIP3      OH2            14.8951312922       10.5903536235      -24.8125141586  W2        2149            0.0000000000
      6446      2149  TIP3      H1             14.1632312922       10.8187236235      -24.2394541586  W2        2149            0.0000000000
      6447      2149  TIP3      H2             15.3423512922        9.8766236235      -24.3577641586  W2        2149            0.0000000000
      6448      2150  TIP3      OH2            14.7924812922        8.7646136235      -15.7448141586  W2        2150            0.0000000000
      6449      2150  TIP3      H1             14.8723912922        9.5280536235      -15.1729641586  W2        2150            0.0000000000
      6450      2150  TIP3      H2             14.1912512922        9.0438536235      -16.4353041586  W2        2150            0.0000000000
      6451      2151  TIP3      OH2             6.5405012922       11.2209736235      -22.9300141586  W2        2151            0.0000000000
      6452      2151  TIP3      H1              6.2100212922       10.8503136235      -23.7483141586  W2        2151            0.0000000000
      6453      2151  TIP3      H2              7.1289112922       10.5503736235      -22.5831841586  W2        2151            0.0000000000
      6454      2152  TIP3      OH2             7.9072512922       14.6490336235      -20.2487941586  W2        2152            0.0000000000
      6455      2152  TIP3      H1              7.8123812922       14.0703436235      -21.0053341586  W2        2152            0.0000000000
      6456      2152  TIP3      H2              8.6366112922       14.2776036235      -19.7525141586  W2        2152            0.0000000000
      6457      2153  TIP3      OH2             6.9070512922        9.9895336235      -19.2965141586  W2        2153            0.0000000000
      6458      2153  TIP3      H1              7.4723012922       10.1109536235      -20.0593941586  W2        2153            0.0000000000
      6459      2153  TIP3      H2              7.2259412922       10.6270336235      -18.6576641586  W2        2153            0.0000000000
      6460      2154  TIP3      OH2            13.2162712922       15.4927236235      -18.5624641586  W2        2154            0.0000000000
      6461      2154  TIP3      H1             12.9759312922       16.1550336235      -17.9145441586  W2        2154            0.0000000000
      6462      2154  TIP3      H2             13.0180912922       14.6582436235      -18.1375041586  W2        2154            0.0000000000
      6463      2155  TIP3      OH2             7.7871212922       14.3888036235      -14.5793241586  W2        2155            0.0000000000
      6464      2155  TIP3      H1              7.4758712922       15.1711236235      -14.1240041586  W2        2155            0.0000000000
      6465      2155  TIP3      H2              7.1371412922       14.2357136235      -15.2651241586  W2        2155            0.0000000000
      6466      2156  TIP3      OH2            13.7660812922        9.7526436235      -27.1273941586  W2        2156            0.0000000000
      6467      2156  TIP3      H1             14.3456312922        9.9026736235      -26.3805041586  W2        2156            0.0000000000
      6468      2156  TIP3      H2             14.1800812922       10.2233836235      -27.8507541586  W2        2156            0.0000000000
      6469      2157  TIP3      OH2             4.7071112922       10.5869136235      -15.3507541586  W2        2157            0.0000000000
      6470      2157  TIP3      H1              4.7774312922       11.2375936235      -14.6522541586  W2        2157            0.0000000000
      6471      2157  TIP3      H2              3.8163312922       10.6896636235      -15.6856641586  W2        2157            0.0000000000
      6472      2158  TIP3      OH2            11.4925712922       16.4894936235      -23.6920841586  W2        2158            0.0000000000
      6473      2158  TIP3      H1             11.9663312922       16.7851236235      -22.9146641586  W2        2158            0.0000000000
      6474      2158  TIP3      H2             10.9295012922       17.2276536235      -23.9251241586  W2        2158            0.0000000000
      6475      2159  TIP3      OH2             6.0267112922       16.4603036235      -13.8159441586  W2        2159            0.0000000000
      6476      2159  TIP3      H1              6.0342412922       16.3242736235      -14.7633941586  W2        2159            0.0000000000
      6477      2159  TIP3      H2              5.1107512922       16.3431136235      -13.5639441586  W2        2159            0.0000000000
      6478      2160  TIP3      OH2            17.4649212922        1.5026836235      -27.3144241586  W2        2160            0.0000000000
      6479      2160  TIP3      H1             16.5649912922        1.6415836235      -27.0193641586  W2        2160            0.0000000000
      6480      2160  TIP3      H2             17.7167612922        2.3341436235      -27.7162541586  W2        2160            0.0000000000
      6481      2161  TIP3      OH2             5.5307712922       10.2904036235      -25.3407341586  W2        2161            0.0000000000
      6482      2161  TIP3      H1              5.2389012922       11.0585736235      -25.8316041586  W2        2161            0.0000000000
      6483      2161  TIP3      H2              4.8562912922        9.6310236235      -25.5035941586  W2        2161            0.0000000000
      6484      2162  TIP3      OH2            18.6540612922       15.8689236235      -28.9380341586  W2        2162            0.0000000000
      6485      2162  TIP3      H1             18.7274112922       16.8079436235      -28.7675041586  W2        2162            0.0000000000
      6486      2162  TIP3      H2             19.5595712922       15.5637836235      -28.9943041586  W2        2162            0.0000000000
      6487      2163  TIP3      OH2             1.6237812922       12.6533236235      -16.5257541586  W2        2163            0.0000000000
      6488      2163  TIP3      H1              1.1226212922       12.6252636235      -17.3407841586  W2        2163            0.0000000000
      6489      2163  TIP3      H2              1.6291512922       11.7476436235      -16.2160241586  W2        2163            0.0000000000
      6490      2164  TIP3      OH2             1.3740512922       15.4337036235      -19.6417341586  W2        2164            0.0000000000
      6491      2164  TIP3      H1              2.3201112922       15.2894036235      -19.6607841586  W2        2164            0.0000000000
      6492      2164  TIP3      H2              1.2616812922       16.2179836235      -19.1046141586  W2        2164            0.0000000000
      6493      2165  TIP3      OH2            19.5719012922       16.0996736235      -13.9593641586  W2        2165            0.0000000000
      6494      2165  TIP3      H1             19.5225812922       15.1444836235      -13.9966041586  W2        2165            0.0000000000
      6495      2165  TIP3      H2             18.7451312922       16.3672036235      -13.5579841586  W2        2165            0.0000000000
      6496      2166  TIP3      OH2            10.5503012922       15.6735936235      -15.0832241586  W2        2166            0.0000000000
      6497      2166  TIP3      H1             10.6377612922       16.5000536235      -14.6083141586  W2        2166            0.0000000000
      6498      2166  TIP3      H2              9.6868112922       15.3439736235      -14.8342941586  W2        2166            0.0000000000
      6499      2167  TIP3      OH2            10.9648812922       19.4459636235      -25.2771641586  W2        2167            0.0000000000
      6500      2167  TIP3      H1             10.8894812922       19.3246836235      -26.2236441586  W2        2167            0.0000000000
      6501      2167  TIP3      H2             10.9977512922       20.3952336235      -25.1587041586  W2        2167            0.0000000000
      6502      2168  TIP3      OH2             4.6182612922       18.2346636235      -23.4962641586  W2        2168            0.0000000000
      6503      2168  TIP3      H1              4.7703012922       17.8867036235      -22.6176141586  W2        2168            0.0000000000
      6504      2168  TIP3      H2              3.7673012922       17.8783936235      -23.7515441586  W2        2168            0.0000000000
      6505      2169  TIP3      OH2            14.0664812922       18.5999836235      -28.2749241586  W2        2169            0.0000000000
      6506      2169  TIP3      H1             14.4413212922       17.8555936235      -28.7456641586  W2        2169            0.0000000000
      6507      2169  TIP3      H2             14.0708512922       18.3300436235      -27.3565941586  W2        2169            0.0000000000
      6508      2170  TIP3      OH2            13.7352912922       18.5256936235      -25.5257041586  W2        2170            0.0000000000
      6509      2170  TIP3      H1             12.8002712922       18.6258836235      -25.3470041586  W2        2170            0.0000000000
      6510      2170  TIP3      H2             14.0154812922       17.8162936235      -24.9473841586  W2        2170            0.0000000000
      6511      2171  TIP3      OH2            16.7238812922        7.5929236235      -13.4791441586  W2        2171            0.0000000000
      6512      2171  TIP3      H1             16.3165612922        8.0734836235      -14.1998141586  W2        2171            0.0000000000
      6513      2171  TIP3      H2             16.7644512922        6.6875236235      -13.7870641586  W2        2171            0.0000000000
      6514      2172  TIP3      OH2             3.8728312922       13.9768636235      -15.4824741586  W2        2172            0.0000000000
      6515      2172  TIP3      H1              4.0889612922       13.6154236235      -14.6228941586  W2        2172            0.0000000000
      6516      2172  TIP3      H2              3.0173012922       13.6022436235      -15.6921241586  W2        2172            0.0000000000
      6517      2173  TIP3      OH2             6.4916312922        2.4469136235      -19.4870541586  W2        2173            0.0000000000
      6518      2173  TIP3      H1              5.6300012922        2.3597336235      -19.8947641586  W2        2173            0.0000000000
      6519      2173  TIP3      H2              6.4692012922        3.3029236235      -19.0592941586  W2        2173            0.0000000000
      6520      2174  TIP3      OH2            11.1544112922        2.1689536235      -16.1123541586  W2        2174            0.0000000000
      6521      2174  TIP3      H1             11.5747212922        1.7536636235      -15.3592941586  W2        2174            0.0000000000
      6522      2174  TIP3      H2             10.2213712922        1.9902836235      -15.9951541586  W2        2174            0.0000000000
      6523      2175  TIP3      OH2            14.4809012922        5.9244736235      -15.2589041586  W2        2175            0.0000000000
      6524      2175  TIP3      H1             13.9668512922        5.7986936235      -14.4613041586  W2        2175            0.0000000000
      6525      2175  TIP3      H2             14.3253712922        6.8367836235      -15.5032841586  W2        2175            0.0000000000
      6526      2176  TIP3      OH2            15.2433912922       10.7854736235      -29.4976041586  W2        2176            0.0000000000
      6527      2176  TIP3      H1             15.2854712922       10.5628636235      -30.4276041586  W2        2176            0.0000000000
      6528      2176  TIP3      H2             16.0926012922       11.1841836235      -29.3076141586  W2        2176            0.0000000000
      6529      2177  TIP3      OH2            10.8161412922        4.6612936235      -28.8272741586  W2        2177            0.0000000000
      6530      2177  TIP3      H1             10.5626212922        4.6804536235      -27.9044641586  W2        2177            0.0000000000
      6531      2177  TIP3      H2             10.5593512922        3.7898336235      -29.1286541586  W2        2177            0.0000000000
      6532      2178  TIP3      OH2             6.5826412922        7.4123636235      -18.3920341586  W2        2178            0.0000000000
      6533      2178  TIP3      H1              5.9408512922        7.3720936235      -17.6830241586  W2        2178            0.0000000000
      6534      2178  TIP3      H2              6.6198412922        8.3388336235      -18.6297341586  W2        2178            0.0000000000
      6535      2179  TIP3      OH2             6.5795512922        7.6333736235      -23.4800341586  W2        2179            0.0000000000
      6536      2179  TIP3      H1              5.6868412922        7.2929836235      -23.5386541586  W2        2179            0.0000000000
      6537      2179  TIP3      H2              7.0302112922        7.2564636235      -24.2357141586  W2        2179            0.0000000000
      6538      2180  TIP3      OH2            12.1151012922        8.0494036235      -24.6629541586  W2        2180            0.0000000000
      6539      2180  TIP3      H1             11.7061312922        8.8642636235      -24.9544741586  W2        2180            0.0000000000
      6540      2180  TIP3      H2             12.8357212922        7.9094136235      -25.2772441586  W2        2180            0.0000000000
      6541      2181  TIP3      OH2            11.2172612922        8.2250436235      -13.1748841586  W2        2181            0.0000000000
      6542      2181  TIP3      H1             10.6546412922        7.5202036235      -12.8541041586  W2        2181            0.0000000000
      6543      2181  TIP3      H2             12.0436012922        8.1042336235      -12.7071241586  W2        2181            0.0000000000
      6544      2182  TIP3      OH2            13.1198712922        7.4954436235      -21.8489841586  W2        2182            0.0000000000
      6545      2182  TIP3      H1             12.9243212922        8.1011236235      -22.5639241586  W2        2182            0.0000000000
      6546      2182  TIP3      H2             13.3011312922        6.6619636235      -22.2833541586  W2        2182            0.0000000000
      6547      2183  TIP3      OH2             4.3326912922        7.7327136235      -16.5248341586  W2        2183            0.0000000000
      6548      2183  TIP3      H1              4.2946312922        8.1328736235      -15.6561241586  W2        2183            0.0000000000
      6549      2183  TIP3      H2              3.8418012922        6.9159536235      -16.4345441586  W2        2183            0.0000000000
      6550      2184  TIP3      OH2             7.6984312922        5.1069436235      -29.7262341586  W2        2184            0.0000000000
      6551      2184  TIP3      H1              7.2675012922        4.6619536235      -28.9964941586  W2        2184            0.0000000000
      6552      2184  TIP3      H2              6.9803012922        5.4785736235      -30.2384841586  W2        2184            0.0000000000
      6553      2185  TIP3      OH2             0.9407712922        4.8488936235      -22.6743641586  W2        2185            0.0000000000
      6554      2185  TIP3      H1              1.5715412922        4.8201036235      -21.9549741586  W2        2185            0.0000000000
      6555      2185  TIP3      H2              1.3902012922        4.4237636235      -23.4047741586  W2        2185            0.0000000000
      6556      2186  TIP3      OH2             2.2149812922        5.5950936235      -27.2503241586  W2        2186            0.0000000000
      6557      2186  TIP3      H1              2.6891512922        6.1860836235      -27.8352341586  W2        2186            0.0000000000
      6558      2186  TIP3      H2              1.4976212922        6.1253836235      -26.9033141586  W2        2186            0.0000000000
      6559      2187  TIP3      OH2            12.3837912922        9.1335736235      -17.1777441586  W2        2187            0.0000000000
      6560      2187  TIP3      H1             12.7072712922        8.5025436235      -17.8206941586  W2        2187            0.0000000000
      6561      2187  TIP3      H2             11.9437212922        8.5987936235      -16.5170041586  W2        2187            0.0000000000
      6562      2188  TIP3      OH2             9.1610812922        5.0611236235      -22.3936241586  W2        2188            0.0000000000
      6563      2188  TIP3      H1              8.2501912922        5.1178036235      -22.1050241586  W2        2188            0.0000000000
      6564      2188  TIP3      H2              9.6663712922        5.0006736235      -21.5829041586  W2        2188            0.0000000000
      6565      2189  TIP3      OH2             3.9894212922        6.6897536235      -23.5668641586  W2        2189            0.0000000000
      6566      2189  TIP3      H1              3.1002212922        6.7893036235      -23.9069041586  W2        2189            0.0000000000
      6567      2189  TIP3      H2              4.2859112922        5.8480536235      -23.9130741586  W2        2189            0.0000000000
      6568      2190  TIP3      OH2             7.6426012922        6.6900136235      -25.9104041586  W2        2190            0.0000000000
      6569      2190  TIP3      H1              8.5741512922        6.8190136235      -25.7320941586  W2        2190            0.0000000000
      6570      2190  TIP3      H2              7.4276312922        7.3594436235      -26.5599341586  W2        2190            0.0000000000
      6571      2191  TIP3      OH2            13.5662712922        4.2957536235      -19.1294441586  W2        2191            0.0000000000
      6572      2191  TIP3      H1             12.8894312922        4.4270636235      -18.4654741586  W2        2191            0.0000000000
      6573      2191  TIP3      H2             13.0807612922        4.1407036235      -19.9396741586  W2        2191            0.0000000000
      6574      2192  TIP3      OH2             6.3166212922        7.8842336235      -28.3437941586  W2        2192            0.0000000000
      6575      2192  TIP3      H1              5.7741312922        7.5046136235      -29.0350341586  W2        2192            0.0000000000
      6576      2192  TIP3      H2              7.1501112922        8.0787036235      -28.7723841586  W2        2192            0.0000000000
      6577      2193  TIP3      OH2            16.8537812922       19.9672936235      -12.8526841586  W2        2193            0.0000000000
      6578      2193  TIP3      H1             17.0536512922       20.3914836235      -13.6871541586  W2        2193            0.0000000000
      6579      2193  TIP3      H2             17.5091512922       20.3111136235      -12.2456441586  W2        2193            0.0000000000
      6580      2194  TIP3      OH2             4.4517612922       12.4414236235      -13.2446341586  W2        2194            0.0000000000
      6581      2194  TIP3      H1              5.1840012922       12.6960136235      -12.6831841586  W2        2194            0.0000000000
      6582      2194  TIP3      H2              3.6716312922       12.6459636235      -12.7290941586  W2        2194            0.0000000000
      6583      2195  TIP3      OH2            10.4810512922        7.8484236235      -20.5066641586  W2        2195            0.0000000000
      6584      2195  TIP3      H1             11.0453912922        7.3020836235      -21.0537041586  W2        2195            0.0000000000
      6585      2195  TIP3      H2             10.3333912922        7.3266136235      -19.7179041586  W2        2195            0.0000000000
      6586      2196  TIP3      OH2             5.4830212922        3.9850336235      -24.0881841586  W2        2196            0.0000000000
      6587      2196  TIP3      H1              5.1659712922        3.0825636235      -24.1236441586  W2        2196            0.0000000000
      6588      2196  TIP3      H2              6.2644312922        3.9867736235      -24.6410241586  W2        2196            0.0000000000
      6589      2197  TIP3      OH2             9.1076412922        6.2370336235      -18.0926241586  W2        2197            0.0000000000
      6590      2197  TIP3      H1              8.2721712922        6.6909836235      -17.9823841586  W2        2197            0.0000000000
      6591      2197  TIP3      H2              9.6317012922        6.5128836235      -17.3406341586  W2        2197            0.0000000000
      6592      2198  TIP3      OH2             9.6519012922       12.4498036235      -26.4079841586  W2        2198            0.0000000000
      6593      2198  TIP3      H1              8.9070012922       11.9423336235      -26.7301941586  W2        2198            0.0000000000
      6594      2198  TIP3      H2              9.5176212922       12.4986036235      -25.4615041586  W2        2198            0.0000000000
      6595      2199  TIP3      OH2            16.8017912922       11.5826236235      -17.6212241586  W2        2199            0.0000000000
      6596      2199  TIP3      H1             17.4436712922       12.0392536235      -18.1650041586  W2        2199            0.0000000000
      6597      2199  TIP3      H2             15.9714812922       11.6958636235      -18.0838141586  W2        2199            0.0000000000
      6598      2200  TIP3      OH2            13.5495812922        5.2637936235      -28.2087241586  W2        2200            0.0000000000
      6599      2200  TIP3      H1             12.6110012922        5.3753536235      -28.3598441586  W2        2200            0.0000000000
      6600      2200  TIP3      H2             13.8467912922        6.1204836235      -27.9021541586  W2        2200            0.0000000000
      6601      2201  TIP3      OH2            11.1711112922       12.6341336235      -15.1710741586  W2        2201            0.0000000000
      6602      2201  TIP3      H1             10.8257212922       12.2523736235      -14.3641141586  W2        2201            0.0000000000
      6603      2201  TIP3      H2             10.9711212922       13.5674936235      -15.0997841586  W2        2201            0.0000000000
      6604      2202  TIP3      OH2            14.2679312922        7.1310636235      -26.5479841586  W2        2202            0.0000000000
      6605      2202  TIP3      H1             15.1598312922        6.9935636235      -26.2288641586  W2        2202            0.0000000000
      6606      2202  TIP3      H2             14.3242912922        7.9216736235      -27.0846341586  W2        2202            0.0000000000
      6607      2203  TIP3      OH2             4.7767312922       11.7448036235      -20.6381941586  W2        2203            0.0000000000
      6608      2203  TIP3      H1              5.5214512922       11.7423736235      -21.2395441586  W2        2203            0.0000000000
      6609      2203  TIP3      H2              4.8543912922       10.9211836235      -20.1566841586  W2        2203            0.0000000000
      6610      2204  TIP3      OH2            11.7773112922       13.9082336235      -27.3825241586  W2        2204            0.0000000000
      6611      2204  TIP3      H1             11.4821512922       14.7350236235      -27.0010441586  W2        2204            0.0000000000
      6612      2204  TIP3      H2             11.0743112922       13.2889236235      -27.1863841586  W2        2204            0.0000000000
      6613      2205  TIP3      OH2             1.7847012922       10.2054936235      -15.3233441586  W2        2205            0.0000000000
      6614      2205  TIP3      H1              2.0075612922        9.7874536235      -14.4915941586  W2        2205            0.0000000000
      6615      2205  TIP3      H2              1.1827112922        9.5929936235      -15.7460641586  W2        2205            0.0000000000
      6616      2206  TIP3      OH2             8.8011912922        9.7224836235      -13.1103741586  W2        2206            0.0000000000
      6617      2206  TIP3      H1              8.5052712922        9.5567836235      -14.0054641586  W2        2206            0.0000000000
      6618      2206  TIP3      H2              9.7327112922        9.5025136235      -13.1209841586  W2        2206            0.0000000000
      6619      2207  TIP3      OH2            13.4214712922       15.0956836235      -15.2205741586  W2        2207            0.0000000000
      6620      2207  TIP3      H1             12.5209012922       15.2789436235      -15.4881841586  W2        2207            0.0000000000
      6621      2207  TIP3      H2             13.4555812922       15.3546136235      -14.2996941586  W2        2207            0.0000000000
      6622      2208  TIP3      OH2            19.1528012922        7.3404736235      -26.8533141586  W2        2208            0.0000000000
      6623      2208  TIP3      H1             18.5984312922        6.9442736235      -27.5255641586  W2        2208            0.0000000000
      6624      2208  TIP3      H2             19.2531612922        8.2509936235      -27.1309841586  W2        2208            0.0000000000
      6625      2209  TIP3      OH2            19.1160012922       13.1406436235      -14.0161641586  W2        2209            0.0000000000
      6626      2209  TIP3      H1             18.2648512922       13.3790236235      -14.3835241586  W2        2209            0.0000000000
      6627      2209  TIP3      H2             19.7063412922       13.1239636235      -14.7694541586  W2        2209            0.0000000000
      6628      2210  TIP3      OH2            17.4479712922       16.1265136235      -26.3881041586  W2        2210            0.0000000000
      6629      2210  TIP3      H1             17.0750812922       15.3008936235      -26.0790441586  W2        2210            0.0000000000
      6630      2210  TIP3      H2             17.7253212922       15.9434536235      -27.2857641586  W2        2210            0.0000000000
      6631      2211  TIP3      OH2            14.6083612922       10.9344636235      -19.3669141586  W2        2211            0.0000000000
      6632      2211  TIP3      H1             13.6800512922       10.7026536235      -19.3939841586  W2        2211            0.0000000000
      6633      2211  TIP3      H2             15.0594712922       10.1574436235      -19.6970341586  W2        2211            0.0000000000
      6634      2212  TIP3      OH2             7.1516712922       15.2626236235      -23.2340441586  W2        2212            0.0000000000
      6635      2212  TIP3      H1              7.6788912922       16.0360636235      -23.4341641586  W2        2212            0.0000000000
      6636      2212  TIP3      H2              6.2715212922       15.4875436235      -23.5356441586  W2        2212            0.0000000000
      6637      2213  TIP3      OH2             2.9064412922       10.1250336235      -28.6468041586  W2        2213            0.0000000000
      6638      2213  TIP3      H1              3.5224312922       10.7517536235      -28.2673241586  W2        2213            0.0000000000
      6639      2213  TIP3      H2              2.0447012922       10.4410136235      -28.3751541586  W2        2213            0.0000000000
      6640      2214  TIP3      OH2             8.5789012922       12.9256136235      -23.6576141586  W2        2214            0.0000000000
      6641      2214  TIP3      H1              8.3379012922       13.8510536235      -23.6160841586  W2        2214            0.0000000000
      6642      2214  TIP3      H2              7.8382612922       12.4667436235      -23.2612241586  W2        2214            0.0000000000
      6643      2215  TIP3      OH2             9.0935612922       17.0749736235      -17.3425041586  W2        2215            0.0000000000
      6644      2215  TIP3      H1              9.4560312922       17.9295336235      -17.5760641586  W2        2215            0.0000000000
      6645      2215  TIP3      H2              9.6250812922       16.7831336235      -16.6018741586  W2        2215            0.0000000000
      6646      2216  TIP3      OH2             7.2619812922       17.9473736235      -24.1123941586  W2        2216            0.0000000000
      6647      2216  TIP3      H1              6.3120312922       18.0531136235      -24.0610641586  W2        2216            0.0000000000
      6648      2216  TIP3      H2              7.6137912922       18.7681136235      -23.7676441586  W2        2216            0.0000000000
      6649      2217  TIP3      OH2            12.6376412922       13.1740436235      -17.6419441586  W2        2217            0.0000000000
      6650      2217  TIP3      H1             12.2117712922       12.9462136235      -16.8155441586  W2        2217            0.0000000000
      6651      2217  TIP3      H2             13.2182212922       12.4352236235      -17.8244141586  W2        2217            0.0000000000
      6652      2218  TIP3      OH2            14.8405312922       14.1030936235      -28.5680441586  W2        2218            0.0000000000
      6653      2218  TIP3      H1             15.1938412922       13.7230736235      -27.7636941586  W2        2218            0.0000000000
      6654      2218  TIP3      H2             13.8918812922       14.0095736235      -28.4811141586  W2        2218            0.0000000000
      6655      2219  TIP3      OH2            15.2960612922       17.7259936235      -15.1724641586  W2        2219            0.0000000000
      6656      2219  TIP3      H1             14.6943812922       17.1702836235      -15.6678341586  W2        2219            0.0000000000
      6657      2219  TIP3      H2             15.5774312922       18.3929736235      -15.7987241586  W2        2219            0.0000000000
      6658      2220  TIP3      OH2            19.3439712922       18.5823436235      -28.3670241586  W2        2220            0.0000000000
      6659      2220  TIP3      H1             20.0877612922       19.1683936235      -28.5068641586  W2        2220            0.0000000000
      6660      2220  TIP3      H2             18.6497812922       19.1509236235      -28.0337841586  W2        2220            0.0000000000
      6661      2221  TIP3      OH2             3.4186512922        4.9587636235      -15.7652041586  W2        2221            0.0000000000
      6662      2221  TIP3      H1              2.5258812922        5.2973036235      -15.8328041586  W2        2221            0.0000000000
      6663      2221  TIP3      H2              3.3199312922        4.1033736235      -15.3471241586  W2        2221            0.0000000000
      6664      2222  TIP3      OH2            15.7064612922       12.7752936235      -26.3412541586  W2        2222            0.0000000000
      6665      2222  TIP3      H1             15.4292212922       12.0472236235      -25.7851441586  W2        2222            0.0000000000
      6666      2222  TIP3      H2             16.6337612922       12.8944936235      -26.1359941586  W2        2222            0.0000000000
      6667      2223  TIP3      OH2             3.0698512922       16.7632036235      -17.3302641586  W2        2223            0.0000000000
      6668      2223  TIP3      H1              3.2868812922       15.8314436235      -17.3612941586  W2        2223            0.0000000000
      6669      2223  TIP3      H2              3.3162012922       17.0377036235      -16.4469841586  W2        2223            0.0000000000
      6670      2224  TIP3      OH2             8.9313112922       15.2147036235      -30.1210441586  W2        2224            0.0000000000
      6671      2224  TIP3      H1              9.1702912922       14.4665136235      -30.6681541586  W2        2224            0.0000000000
      6672      2224  TIP3      H2              8.6624412922       14.8268736235      -29.2882641586  W2        2224            0.0000000000
      6673      2225  TIP3      OH2             7.8683712922       14.7850836235      -27.6647841586  W2        2225            0.0000000000
      6674      2225  TIP3      H1              8.0151712922       14.2650636235      -26.8746941586  W2        2225            0.0000000000
      6675      2225  TIP3      H2              7.8655412922       15.6918436235      -27.3581941586  W2        2225            0.0000000000
      6676      2226  TIP3      OH2             4.3214812922       12.0374136235      -27.1542441586  W2        2226            0.0000000000
      6677      2226  TIP3      H1              3.6354112922       12.3896636235      -26.5872741586  W2        2226            0.0000000000
      6678      2226  TIP3      H2              4.8442712922       12.8003736235      -27.4008141586  W2        2226            0.0000000000
      6679      2227  TIP3      OH2            12.1529912922        4.6997936235      -16.8753441586  W2        2227            0.0000000000
      6680      2227  TIP3      H1             12.8517812922        4.7736636235      -16.2253741586  W2        2227            0.0000000000
      6681      2227  TIP3      H2             11.7721312922        3.8352936235      -16.7210541586  W2        2227            0.0000000000
      6682      2228  TIP3      OH2            12.9374812922        4.3519636235      -25.7781141586  W2        2228            0.0000000000
      6683      2228  TIP3      H1             13.1573112922        4.8235036235      -26.5815741586  W2        2228            0.0000000000
      6684      2228  TIP3      H2             13.4958812922        4.7462236235      -25.1080541586  W2        2228            0.0000000000
      6685      2229  TIP3      OH2            10.6060912922       16.4824436235      -26.9153641586  W2        2229            0.0000000000
      6686      2229  TIP3      H1              9.7897012922       16.9794136235      -26.8629341586  W2        2229            0.0000000000
      6687      2229  TIP3      H2             11.1357212922       16.9577936235      -27.5554841586  W2        2229            0.0000000000
      6688      2230  TIP3      OH2            10.1374712922        6.0798436235      -24.9432741586  W2        2230            0.0000000000
      6689      2230  TIP3      H1             10.9497312922        6.5841636235      -24.8971041586  W2        2230            0.0000000000
      6690      2230  TIP3      H2              9.8927712922        5.9348136235      -24.0293141586  W2        2230            0.0000000000
      6691      2231  TIP3      OH2            10.6731112922        7.0661136235      -15.7586141586  W2        2231            0.0000000000
      6692      2231  TIP3      H1             10.7921412922        7.6396536235      -15.0015741586  W2        2231            0.0000000000
      6693      2231  TIP3      H2             11.3285712922        6.3780536235      -15.6438341586  W2        2231            0.0000000000
      6694      2232  TIP3      OH2            11.0211412922        3.1611436235      -24.0051641586  W2        2232            0.0000000000
      6695      2232  TIP3      H1             10.6744912922        3.7782036235      -23.3607341586  W2        2232            0.0000000000
      6696      2232  TIP3      H2             11.6798312922        3.6617136235      -24.4866141586  W2        2232            0.0000000000
      6697      2233  TIP3      OH2             7.9444012922       17.5261636235      -26.9336741586  W2        2233            0.0000000000
      6698      2233  TIP3      H1              8.1052712922       18.3259136235      -27.4344141586  W2        2233            0.0000000000
      6699      2233  TIP3      H2              7.7471812922       17.8327636235      -26.0486141586  W2        2233            0.0000000000
      6700      2234  TIP3      OH2             6.6788412922        4.2240836235      -27.3179141586  W2        2234            0.0000000000
      6701      2234  TIP3      H1              6.5953212922        5.1123936235      -26.9712741586  W2        2234            0.0000000000
      6702      2234  TIP3      H2              7.5688712922        3.9587536235      -27.0862341586  W2        2234            0.0000000000
      6703      2235  TIP3      OH2            16.8776912922        4.9731436235      -14.9236441586  W2        2235            0.0000000000
      6704      2235  TIP3      H1             15.9612712922        5.2353136235      -15.0112741586  W2        2235            0.0000000000
      6705      2235  TIP3      H2             17.2131912922        4.9700436235      -15.8201141586  W2        2235            0.0000000000
      6706      2236  TIP3      OH2            15.4797912922        8.7232436235      -20.8279141586  W2        2236            0.0000000000
      6707      2236  TIP3      H1             14.6822312922        8.3082636235      -21.1564141586  W2        2236            0.0000000000
      6708      2236  TIP3      H2             15.9249012922        8.0326136235      -20.3368641586  W2        2236            0.0000000000
      6709      2237  TIP3      OH2             4.9373712922       14.6513036235      -28.2574641586  W2        2237            0.0000000000
      6710      2237  TIP3      H1              5.5295212922       15.3507836235      -27.9812241586  W2        2237            0.0000000000
      6711      2237  TIP3      H2              5.3966712922       14.2182536235      -28.9770041586  W2        2237            0.0000000000
      6712      2238  TIP3      OH2             3.2532912922        7.3156036235      -29.1415241586  W2        2238            0.0000000000
      6713      2238  TIP3      H1              3.2085512922        8.2549136235      -28.9628241586  W2        2238            0.0000000000
      6714      2238  TIP3      H2              2.3656112922        7.0800936235      -29.4113141586  W2        2238            0.0000000000
      6715      2239  TIP3      OH2            16.5662512922       17.9794936235      -19.2055641586  W2        2239            0.0000000000
      6716      2239  TIP3      H1             16.4106812922       18.6579336235      -19.8626341586  W2        2239            0.0000000000
      6717      2239  TIP3      H2             17.4988912922       18.0514236235      -19.0025041586  W2        2239            0.0000000000
      6718      2240  TIP3      OH2             4.0614912922        2.0972636235      -20.4684241586  W2        2240            0.0000000000
      6719      2240  TIP3      H1              3.8324712922        2.1565136235      -21.3959241586  W2        2240            0.0000000000
      6720      2240  TIP3      H2              3.6188312922        1.3058136235      -20.1620141586  W2        2240            0.0000000000
      6721      2241  TIP3      OH2             2.9918212922       16.0379736235      -24.3078441586  W2        2241            0.0000000000
      6722      2241  TIP3      H1              2.1596812922       16.5102436235      -24.2807041586  W2        2241            0.0000000000
      6723      2241  TIP3      H2              3.5376512922       16.5477336235      -24.9065341586  W2        2241            0.0000000000
      6724      2242  TIP3      OH2             2.2801912922       18.6503436235      -12.9780441586  W2        2242            0.0000000000
      6725      2242  TIP3      H1              2.8204112922       18.4337436235      -12.2181241586  W2        2242            0.0000000000
      6726      2242  TIP3      H2              1.7989912922       17.8449436235      -13.1677941586  W2        2242            0.0000000000
      6727      2243  TIP3      OH2             6.8775312922       17.5697836235      -11.3576241586  W2        2243            0.0000000000
      6728      2243  TIP3      H1              7.6452512922       17.1108636235      -11.0167041586  W2        2243            0.0000000000
      6729      2243  TIP3      H2              6.8561512922       17.3437636235      -12.2875041586  W2        2243            0.0000000000
      6730      2244  TIP3      OH2            10.9694912922       17.0778436235      -29.9824441586  W2        2244            0.0000000000
      6731      2244  TIP3      H1             10.3255912922       16.4467036235      -29.6610741586  W2        2244            0.0000000000
      6732      2244  TIP3      H2             11.7313212922       16.5466436235      -30.2140941586  W2        2244            0.0000000000
      6733      2245  TIP3      OH2            13.4544012922       15.9498936235      -12.6284741586  W2        2245            0.0000000000
      6734      2245  TIP3      H1             13.1033512922       15.0931936235      -12.3854341586  W2        2245            0.0000000000
      6735      2245  TIP3      H2             14.1807212922       16.0925636235      -12.0215741586  W2        2245            0.0000000000
      6736      2246  TIP3      OH2            15.5737812922       16.8948336235      -29.7486441586  W2        2246            0.0000000000
      6737      2246  TIP3      H1             15.8568212922       16.1003536235      -29.2959541586  W2        2246            0.0000000000
      6738      2246  TIP3      H2             16.3135712922       17.1279336235      -30.3095341586  W2        2246            0.0000000000
      6739      2247  TIP3      OH2             2.1871412922       12.4607536235      -12.0236141586  W2        2247            0.0000000000
      6740      2247  TIP3      H1              2.3311912922       11.5588236235      -12.3099441586  W2        2247            0.0000000000
      6741      2247  TIP3      H2              1.4148812922       12.7469636235      -12.5113841586  W2        2247            0.0000000000
      6742      2248  TIP3      OH2             6.5285112922       12.8043236235      -29.8911541586  W2        2248            0.0000000000
      6743      2248  TIP3      H1              6.5929212922       12.0102836235      -29.3605141586  W2        2248            0.0000000000
      6744      2248  TIP3      H2              7.1814312922       12.6856036235      -30.5809541586  W2        2248            0.0000000000
      6745      2249  TIP3      OH2             8.8427512922       12.4305636235      -12.5909741586  W2        2249            0.0000000000
      6746      2249  TIP3      H1              8.5141312922       12.7013736235      -13.4482341586  W2        2249            0.0000000000
      6747      2249  TIP3      H2              8.9945712922       11.4895436235      -12.6784741586  W2        2249            0.0000000000
      6748      2250  TIP3      OH2            11.8808512922       13.8514936235      -30.1553541586  W2        2250            0.0000000000
      6749      2250  TIP3      H1             11.6122612922       14.0317036235      -29.2544641586  W2        2250            0.0000000000
      6750      2250  TIP3      H2             11.6744112922       12.9261136235      -30.2867741586  W2        2250            0.0000000000
      6751      2251  TIP3      OH2            14.5772712922       12.3462936235      -15.2077441586  W2        2251            0.0000000000
      6752      2251  TIP3      H1             15.3227512922       12.9346636235      -15.3273441586  W2        2251            0.0000000000
      6753      2251  TIP3      H2             13.8199512922       12.9282636235      -15.1444341586  W2        2251            0.0000000000
      6754      2252  TIP3      OH2             3.0197912922        9.6610836235      -12.6036841586  W2        2252            0.0000000000
      6755      2252  TIP3      H1              3.4279112922        8.8037436235      -12.7246241586  W2        2252            0.0000000000
      6756      2252  TIP3      H2              2.7595512922        9.6752136235      -11.6826541586  W2        2252            0.0000000000
      6757      2253  TIP3      OH2             7.6778912922       10.7769436235      -27.5853541586  W2        2253            0.0000000000
      6758      2253  TIP3      H1              7.2180912922       10.2927736235      -26.8995041586  W2        2253            0.0000000000
      6759      2253  TIP3      H2              7.9327612922       10.1084836235      -28.2213041586  W2        2253            0.0000000000
      6760      2254  TIP3      OH2             6.9668212922        8.6696536235      -15.2293941586  W2        2254            0.0000000000
      6761      2254  TIP3      H1              6.3484312922        9.3443136235      -14.9489241586  W2        2254            0.0000000000
      6762      2254  TIP3      H2              7.3109412922        8.9910436235      -16.0627741586  W2        2254            0.0000000000
      6763      2255  TIP3      OH2             8.7489312922        9.0201236235      -29.3230341586  W2        2255            0.0000000000
      6764      2255  TIP3      H1              8.5684312922        8.8652436235      -30.2502041586  W2        2255            0.0000000000
      6765      2255  TIP3      H2              9.6989812922        9.1279936235      -29.2782441586  W2        2255            0.0000000000
      6766      2256  TIP3      OH2            11.9866412922       11.1411836235      -11.9519141586  W2        2256            0.0000000000
      6767      2256  TIP3      H1             12.9397612922       11.2250936235      -11.9793141586  W2        2256            0.0000000000
      6768      2256  TIP3      H2             11.8261012922       10.4293636235      -11.3324241586  W2        2256            0.0000000000
      6769      2257  TIP3      OH2            18.1387612922       11.3745436235      -29.8772241586  W2        2257            0.0000000000
      6770      2257  TIP3      H1             17.8652412922       10.9500936235      -30.6903941586  W2        2257            0.0000000000
      6771      2257  TIP3      H2             18.1781712922       12.3059936235      -30.0941841586  W2        2257            0.0000000000
      6772      2258  TIP3      OH2             7.3061912922        6.0247336235      -14.1470841586  W2        2258            0.0000000000
      6773      2258  TIP3      H1              7.4562812922        5.2958636235      -14.7491141586  W2        2258            0.0000000000
      6774      2258  TIP3      H2              7.3084312922        6.8019036235      -14.7058641586  W2        2258            0.0000000000
      6775      2259  TIP3      OH2             7.7187612922        4.3943136235      -16.6543441586  W2        2259            0.0000000000
      6776      2259  TIP3      H1              8.2545112922        4.8459836235      -17.3064141586  W2        2259            0.0000000000
      6777      2259  TIP3      H2              6.8667212922        4.2862936235      -17.0769341586  W2        2259            0.0000000000
      6778      2260  TIP3      OH2             9.3006012922        9.8339336235      -16.4148241586  W2        2260            0.0000000000
      6779      2260  TIP3      H1             10.0510812922        9.6776836235      -16.9880441586  W2        2260            0.0000000000
      6780      2260  TIP3      H2              8.9614312922       10.6855936235      -16.6902741586  W2        2260            0.0000000000
      6781      2261  TIP3      OH2            13.7162212922        7.6491136235      -11.3862941586  W2        2261            0.0000000000
      6782      2261  TIP3      H1             13.9083512922        6.7180536235      -11.4978441586  W2        2261            0.0000000000
      6783      2261  TIP3      H2             14.5738512922        8.0740636235      -11.3967541586  W2        2261            0.0000000000
      6784      2262  TIP3      OH2            15.0329412922       10.4376336235      -13.3090241586  W2        2262            0.0000000000
      6785      2262  TIP3      H1             14.7514412922       11.1470936235      -13.8866441586  W2        2262            0.0000000000
      6786      2262  TIP3      H2             15.9753712922       10.3649336235      -13.4599041586  W2        2262            0.0000000000
      6787      2263  TIP3      OH2             5.7848212922        7.2230836235      -12.2355241586  W2        2263            0.0000000000
      6788      2263  TIP3      H1              5.0177212922        6.6905636235      -12.4457641586  W2        2263            0.0000000000
      6789      2263  TIP3      H2              6.4637212922        6.9131236235      -12.8348941586  W2        2263            0.0000000000
      6790      2264  TIP3      OH2             8.5243112922        1.8508836235      -16.2229841586  W2        2264            0.0000000000
      6791      2264  TIP3      H1              8.4262712922        2.7972036235      -16.3283641586  W2        2264            0.0000000000
      6792      2264  TIP3      H2              7.7819312922        1.4782636235      -16.6986341586  W2        2264            0.0000000000
      6793      2265  TIP3      OH2             9.7883612922        6.1724236235      -12.6591441586  W2        2265            0.0000000000
      6794      2265  TIP3      H1              9.5529012922        5.9530936235      -11.7576541586  W2        2265            0.0000000000
      6795      2265  TIP3      H2              9.0050512922        5.9655436235      -13.1688941586  W2        2265            0.0000000000
      6796      2266  TIP3      OH2            12.5040212922        5.2997736235      -13.5837941586  W2        2266            0.0000000000
      6797      2266  TIP3      H1             11.5565612922        5.3317436235      -13.4514641586  W2        2266            0.0000000000
      6798      2266  TIP3      H2             12.8166912922        4.6744836235      -12.9299741586  W2        2266            0.0000000000
      6799      2267  TIP3      OH2            14.1381712922        3.9338836235      -11.5786041586  W2        2267            0.0000000000
      6800      2267  TIP3      H1             14.0413512922        2.9816136235      -11.5844141586  W2        2267            0.0000000000
      6801      2267  TIP3      H2             13.8164812922        4.2025636235      -10.7180541586  W2        2267            0.0000000000
      6802      2268  TIP3      OH2             3.9651012922        5.1434636235      -12.5310541586  W2        2268            0.0000000000
      6803      2268  TIP3      H1              4.1768412922        4.4370736235      -13.1413041586  W2        2268            0.0000000000
      6804      2268  TIP3      H2              3.8538512922        4.7060636235      -11.6869341586  W2        2268            0.0000000000
      6805      2269  TIP3      OH2             8.7461212922        1.1446236235      -13.5517041586  W2        2269            0.0000000000
      6806      2269  TIP3      H1              9.4579612922        0.5048436235      -13.5657941586  W2        2269            0.0000000000
      6807      2269  TIP3      H2              8.6451612922        1.4114536235      -14.4653941586  W2        2269            0.0000000000
      6808      2270  TIP3      OH2             9.0998712922        2.8274636235      -11.4980741586  W2        2270            0.0000000000
      6809      2270  TIP3      H1              8.9680912922        2.3518436235      -12.3182241586  W2        2270            0.0000000000
      6810      2270  TIP3      H2              8.5006112922        3.5718236235      -11.5533641586  W2        2270            0.0000000000
      6811      2271  TIP3      OH2             8.6461012922       19.7104936235      -28.3216741586  W2        2271            0.0000000000
      6812      2271  TIP3      H1              9.5791712922       19.8683636235      -28.1778341586  W2        2271            0.0000000000
      6813      2271  TIP3      H2              8.3819812922       20.3857936235      -28.9465241586  W2        2271            0.0000000000
      6814      2272  TIP3      OH2             2.2145912922       14.3468736235      -28.8388641586  W2        2272            0.0000000000
      6815      2272  TIP3      H1              3.1285112922       14.4257636235      -28.5654741586  W2        2272            0.0000000000
      6816      2272  TIP3      H2              2.2219012922       13.6598336235      -29.5053041586  W2        2272            0.0000000000
      6817      2273  TIP3      OH2             0.8636512922       19.7397236235      -23.7614741586  W2        2273            0.0000000000
      6818      2273  TIP3      H1              0.2163612922       19.2778936235      -24.2943541586  W2        2273            0.0000000000
      6819      2273  TIP3      H2              1.2181112922       19.0680536235      -23.1788541586  W2        2273            0.0000000000
      6820      2274  TIP3      OH2             1.7335712922       17.8204236235      -21.9568541586  W2        2274            0.0000000000
      6821      2274  TIP3      H1              1.3992512922       16.9401536235      -21.7848341586  W2        2274            0.0000000000
      6822      2274  TIP3      H2              1.9558112922       18.1659236235      -21.0922941586  W2        2274            0.0000000000
      6823      2275  TIP3      OH2            19.2820512922       18.6300636235      -18.9763741586  W2        2275            0.0000000000
      6824      2275  TIP3      H1             19.2607212922       18.8149036235      -18.0374341586  W2        2275            0.0000000000
      6825      2275  TIP3      H2             19.9726712922       19.1984636235      -19.3172341586  W2        2275            0.0000000000
      6826      2276  TIP3      OH2            18.8453412922       18.1971736235      -16.0544641586  W2        2276            0.0000000000
      6827      2276  TIP3      H1             18.3582112922       17.4615836235      -16.4257241586  W2        2276            0.0000000000
      6828      2276  TIP3      H2             19.3946112922       17.8035636235      -15.3765241586  W2        2276            0.0000000000
      6829      2277  TIP3      OH2            17.2960712922       13.9869836235      -11.4164341586  W2        2277            0.0000000000
      6830      2277  TIP3      H1             16.4301812922       13.8819536235      -11.0222041586  W2        2277            0.0000000000
      6831      2277  TIP3      H2             17.6726612922       14.7453136235      -10.9699641586  W2        2277            0.0000000000
      6832      2278  TIP3      OH2            18.5970412922       12.2433536235      -25.9021841586  W2        2278            0.0000000000
      6833      2278  TIP3      H1             19.4471812922       12.6644436235      -25.7750241586  W2        2278            0.0000000000
      6834      2278  TIP3      H2             18.6025512922       11.5033636235      -25.2950441586  W2        2278            0.0000000000
      6835      2279  TIP3      OH2            18.9916012922       10.2970936235      -24.0786141586  W2        2279            0.0000000000
      6836      2279  TIP3      H1             18.2650612922        9.8173536235      -23.6808541586  W2        2279            0.0000000000
      6837      2279  TIP3      H2             19.5729312922       10.5025636235      -23.3464541586  W2        2279            0.0000000000
      6838      2280  TIP3      OH2            18.7507212922       13.0818436235      -19.1308541586  W2        2280            0.0000000000
      6839      2280  TIP3      H1             19.5841412922       12.7038436235      -19.4114941586  W2        2280            0.0000000000
      6840      2280  TIP3      H2             18.8627512922       14.0249636235      -19.2499441586  W2        2280            0.0000000000
      6841      2281  TIP3      OH2            17.2369512922       15.9595936235      -16.8240141586  W2        2281            0.0000000000
      6842      2281  TIP3      H1             16.5894812922       16.2847436235      -16.1984941586  W2        2281            0.0000000000
      6843      2281  TIP3      H2             16.7193512922       15.5193636235      -17.4981841586  W2        2281            0.0000000000
      6844      2282  TIP3      OH2            19.2599112922       10.1979436235      -27.6874841586  W2        2282            0.0000000000
      6845      2282  TIP3      H1             18.7380212922       10.5543536235      -28.4063941586  W2        2282            0.0000000000
      6846      2282  TIP3      H2             19.2268312922       10.8727236235      -27.0093941586  W2        2282            0.0000000000
      6847      2283  TIP3      OH2            17.6088112922        7.4375036235      -29.1367741586  W2        2283            0.0000000000
      6848      2283  TIP3      H1             17.7052512922        8.1042036235      -29.8168041586  W2        2283            0.0000000000
      6849      2283  TIP3      H2             17.4687712922        6.6221336235      -29.6182241586  W2        2283            0.0000000000
      6850      2284  TIP3      OH2            16.7782812922        8.8177436235      -23.5157441586  W2        2284            0.0000000000
      6851      2284  TIP3      H1             16.6281612922        7.8726036235      -23.5359641586  W2        2284            0.0000000000
      6852      2284  TIP3      H2             16.4247312922        9.0988836235      -22.6718341586  W2        2284            0.0000000000
      6853      2285  TIP3      OH2             1.8135212922       10.8959636235      -19.5053641586  W2        2285            0.0000000000
      6854      2285  TIP3      H1              1.9978112922       10.8141336235      -20.4410741586  W2        2285            0.0000000000
      6855      2285  TIP3      H2              2.6628112922       10.7716636235      -19.0817241586  W2        2285            0.0000000000
      6856      2286  TIP3      OH2            17.6345712922       10.7880736235      -13.8769141586  W2        2286            0.0000000000
      6857      2286  TIP3      H1             18.2173012922       10.0533036235      -13.6851941586  W2        2286            0.0000000000
      6858      2286  TIP3      H2             18.1985012922       11.5601036235      -13.8303341586  W2        2286            0.0000000000
      6859      2287  TIP3      OH2            19.1312812922        8.6906536235      -13.1923741586  W2        2287            0.0000000000
      6860      2287  TIP3      H1             18.2679512922        8.3118636235      -13.3579041586  W2        2287            0.0000000000
      6861      2287  TIP3      H2             19.7356512922        7.9521336235      -13.2667941586  W2        2287            0.0000000000
      6862      2288  TIP3      OH2            16.8561912922        4.8454836235      -30.0192241586  W2        2288            0.0000000000
      6863      2288  TIP3      H1             17.4667712922        4.4741636235      -29.3824041586  W2        2288            0.0000000000
      6864      2288  TIP3      H2             16.0193412922        4.4241736235      -29.8232241586  W2        2288            0.0000000000
      6865      2289  TIP3      OH2            16.4887612922        6.4003236235      -25.0532341586  W2        2289            0.0000000000
      6866      2289  TIP3      H1             16.7684712922        5.4933636235      -24.9290641586  W2        2289            0.0000000000
      6867      2289  TIP3      H2             17.2479312922        6.8344736235      -25.4423141586  W2        2289            0.0000000000
      6868      2290  TIP3      OH2            17.1005912922        6.9820636235      -19.6173441586  W2        2290            0.0000000000
      6869      2290  TIP3      H1             18.0333912922        7.1940536235      -19.6517441586  W2        2290            0.0000000000
      6870      2290  TIP3      H2             16.8653412922        7.0832736235      -18.6950441586  W2        2290            0.0000000000
      6871      2291  TIP3      OH2            17.1297812922        7.7185936235      -16.8414041586  W2        2291            0.0000000000
      6872      2291  TIP3      H1             16.2869112922        7.9866336235      -16.4754241586  W2        2291            0.0000000000
      6873      2291  TIP3      H2             17.5722112922        8.5407836235      -17.0522941586  W2        2291            0.0000000000
      6874      2292  TIP3      OH2             1.4110012922        6.1664636235      -13.3644841586  W2        2292            0.0000000000
      6875      2292  TIP3      H1              2.3304912922        6.0442936235      -13.1281741586  W2        2292            0.0000000000
      6876      2292  TIP3      H2              0.9614512922        5.4164336235      -12.9751341586  W2        2292            0.0000000000
      6877      2293  TIP3      OH2            19.4129412922        1.6986136235      -11.4879041586  W2        2293            0.0000000000
      6878      2293  TIP3      H1             19.7626412922        1.0449636235      -12.0934341586  W2        2293            0.0000000000
      6879      2293  TIP3      H2             19.5598912922        2.5360236235      -11.9276441586  W2        2293            0.0000000000
      6880      2294  TIP3      OH2            17.1022412922        3.6632536235      -25.0050341586  W2        2294            0.0000000000
      6881      2294  TIP3      H1             17.2847412922        3.2144036235      -24.1795341586  W2        2294            0.0000000000
      6882      2294  TIP3      H2             16.5025312922        3.0786936235      -25.4685741586  W2        2294            0.0000000000
      6883      2295  TIP3      OH2             2.6322512922        4.4786236235      -20.4731941586  W2        2295            0.0000000000
      6884      2295  TIP3      H1              3.0774112922        3.6868736235      -20.1712241586  W2        2295            0.0000000000
      6885      2295  TIP3      H2              3.0985512922        5.1951436235      -20.0426341586  W2        2295            0.0000000000
      6886      2296  TIP3      OH2             0.9362812922        7.4779236235      -19.4041741586  W2        2296            0.0000000000
      6887      2296  TIP3      H1              1.4282612922        7.2569736235      -20.1949741586  W2        2296            0.0000000000
      6888      2296  TIP3      H2              1.2983712922        8.3182636235      -19.1232241586  W2        2296            0.0000000000
      6889      2297  TIP3      OH2            18.9326612922        3.8080736235      -13.1387741586  W2        2297            0.0000000000
      6890      2297  TIP3      H1             18.0152312922        4.0787836235      -13.1744241586  W2        2297            0.0000000000
      6891      2297  TIP3      H2             19.0556012922        3.2729136235      -13.9228041586  W2        2297            0.0000000000
      6892      2298  TIP3      OH2            18.9688612922        3.7310636235      -28.4770041586  W2        2298            0.0000000000
      6893      2298  TIP3      H1             19.3811212922        3.0096336235      -28.9522041586  W2        2298            0.0000000000
      6894      2298  TIP3      H2             19.6505112922        4.4005236235      -28.4185741586  W2        2298            0.0000000000
      6895      2299  TIP3      OH2             1.2499312922        3.7358336235      -25.3499341586  W2        2299            0.0000000000
      6896      2299  TIP3      H1              0.3247712922        3.9444936235      -25.4793841586  W2        2299            0.0000000000
      6897      2299  TIP3      H2              1.7039212922        4.2199136235      -26.0397041586  W2        2299            0.0000000000
      6898      2300  TIP3      OH2            16.0206512922       18.7200036235      -23.4041941586  W2        2300            0.0000000000
      6899      2300  TIP3      H1             16.6729412922       18.3722136235      -24.0122841586  W2        2300            0.0000000000
      6900      2300  TIP3      H2             16.5310312922       19.2083236235      -22.7582241586  W2        2300            0.0000000000
      6901      2301  TIP3      OH2             1.2134712922        2.4737336235      -17.0056841586  W2        2301            0.0000000000
      6902      2301  TIP3      H1              0.5485212922        2.2277636235      -16.3625941586  W2        2301            0.0000000000
      6903      2301  TIP3      H2              0.7706012922        3.0957736235      -17.5828841586  W2        2301            0.0000000000
      6904      2302  TIP3      OH2             3.4054012922       15.6491436235      -12.8611041586  W2        2302            0.0000000000
      6905      2302  TIP3      H1              2.5846512922       15.8237936235      -13.3216341586  W2        2302            0.0000000000
      6906      2302  TIP3      H2              3.1531812922       15.5756136235      -11.9406641586  W2        2302            0.0000000000
      6907      2303  TIP3      OH2             6.3596912922       16.6232636235      -16.6027041586  W2        2303            0.0000000000
      6908      2303  TIP3      H1              5.9348012922       17.4331136235      -16.8852441586  W2        2303            0.0000000000
      6909      2303  TIP3      H2              7.2639712922       16.7086736235      -16.9047241586  W2        2303            0.0000000000
      6910      2304  TIP3      OH2            10.6708312922       18.0222636235      -13.6433341586  W2        2304            0.0000000000
      6911      2304  TIP3      H1             10.8555812922       17.6888736235      -12.7653041586  W2        2304            0.0000000000
      6912      2304  TIP3      H2             11.5172812922       18.3321236235      -13.9654141586  W2        2304            0.0000000000
      6913      2305  TIP3      OH2            13.0158712922       19.3081536235      -14.3991941586  W2        2305            0.0000000000
      6914      2305  TIP3      H1             13.6927612922       18.6753836235      -14.6392741586  W2        2305            0.0000000000
      6915      2305  TIP3      H2             13.3377512922       19.7092036235      -13.5918641586  W2        2305            0.0000000000
      6916      2306  TIP3      OH2            17.9332512922        1.8977036235      -15.3196941586  W2        2306            0.0000000000
      6917      2306  TIP3      H1             17.1206012922        2.2227336235      -15.7072241586  W2        2306            0.0000000000
      6918      2306  TIP3      H2             18.1661012922        1.1375536235      -15.8527841586  W2        2306            0.0000000000
      6919      2307  TIP3      OH2             3.7613612922       19.8796536235      -16.5551741586  W2        2307            0.0000000000
      6920      2307  TIP3      H1              3.0410012922       20.3197536235      -17.0064041586  W2        2307            0.0000000000
      6921      2307  TIP3      H2              3.3957612922       19.6291236235      -15.7067741586  W2        2307            0.0000000000
      6922      2308  TIP3      OH2             6.2286212922       19.4800436235      -17.5254541586  W2        2308            0.0000000000
      6923      2308  TIP3      H1              5.3638412922       19.5518936235      -17.1214441586  W2        2308            0.0000000000
      6924      2308  TIP3      H2              6.1735212922       20.0267736235      -18.3092041586  W2        2308            0.0000000000
      6925      2309  TIP3      OH2            10.9391812922       19.3679336235      -18.3498541586  W2        2309            0.0000000000
      6926      2309  TIP3      H1             10.4825812922       19.8969036235      -19.0040141586  W2        2309            0.0000000000
      6927      2309  TIP3      H2             11.1019812922       19.9710736235      -17.6246241586  W2        2309            0.0000000000
      6928      2310  TIP3      OH2            13.2668112922       18.2458936235      -17.4048241586  W2        2310            0.0000000000
      6929      2310  TIP3      H1             12.3621812922       18.4109136235      -17.6706141586  W2        2310            0.0000000000
      6930      2310  TIP3      H2             13.6956712922       19.0991136235      -17.4704841586  W2        2310            0.0000000000
      6931      2311  TIP3      OH2            15.8710012922       19.8158036235      -17.1100441586  W2        2311            0.0000000000
      6932      2311  TIP3      H1             15.6892012922       20.7316936235      -17.3205541586  W2        2311            0.0000000000
      6933      2311  TIP3      H2             16.0477812922       19.4055136235      -17.9565841586  W2        2311            0.0000000000
      6934      2312  TIP3      OH2             3.1761712922       18.5029036235      -19.6449941586  W2        2312            0.0000000000
      6935      2312  TIP3      H1              3.1577712922       18.0774136235      -18.7877641586  W2        2312            0.0000000000
      6936      2312  TIP3      H2              3.9809612922       18.1844036235      -20.0537741586  W2        2312            0.0000000000
      6937      2313  TIP3      OH2             5.3174812922       17.2127736235      -20.9900041586  W2        2313            0.0000000000
      6938      2313  TIP3      H1              5.0985512922       16.2965136235      -20.8204041586  W2        2313            0.0000000000
      6939      2313  TIP3      H2              6.1417012922       17.3528136235      -20.5238641586  W2        2313            0.0000000000
      6940      2314  TIP3      OH2             7.8547312922       17.6827036235      -20.1412041586  W2        2314            0.0000000000
      6941      2314  TIP3      H1              8.0673012922       16.7946036235      -20.4281141586  W2        2314            0.0000000000
      6942      2314  TIP3      H2              7.9192412922       17.6484736235      -19.1868041586  W2        2314            0.0000000000
      6943      2315  TIP3      OH2            11.3631012922        3.3467636235      -20.9968741586  W2        2315            0.0000000000
      6944      2315  TIP3      H1             10.6887812922        2.7173236235      -20.7412941586  W2        2315            0.0000000000
      6945      2315  TIP3      H2             11.9270212922        2.8626536235      -21.6000841586  W2        2315            0.0000000000
      6946      2316  TIP3      OH2            16.5058212922        1.4541636235      -20.8841641586  W2        2316            0.0000000000
      6947      2316  TIP3      H1             17.1095812922        2.0017036235      -21.3860641586  W2        2316            0.0000000000
      6948      2316  TIP3      H2             15.6360212922        1.7732036235      -21.1247541586  W2        2316            0.0000000000
      6949      2317  TIP3      OH2            18.2328612922        2.5930336235      -22.5510741586  W2        2317            0.0000000000
      6950      2317  TIP3      H1             18.8446112922        2.0786036235      -23.0777141586  W2        2317            0.0000000000
      6951      2317  TIP3      H2             18.6152012922        3.4702436235      -22.5276341586  W2        2317            0.0000000000
      6952      2318  TIP3      OH2             3.6898512922        1.9807936235      -23.1748841586  W2        2318            0.0000000000
      6953      2318  TIP3      H1              2.9128312922        1.7462836235      -23.6822941586  W2        2318            0.0000000000
      6954      2318  TIP3      H2              4.2202112922        1.1840036235      -23.1660841586  W2        2318            0.0000000000
      6955      2319  TIP3      OH2             2.5261912922        1.7786036235      -27.3712741586  W2        2319            0.0000000000
      6956      2319  TIP3      H1              2.9652612922        2.3896536235      -27.9629241586  W2        2319            0.0000000000
      6957      2319  TIP3      H2              1.8924312922        2.3170136235      -26.8972741586  W2        2319            0.0000000000
      6958      2320  TIP3      OH2             8.2691112922        1.9075036235      -23.3615741586  W2        2320            0.0000000000
      6959      2320  TIP3      H1              9.1434512922        2.2959336235      -23.3911441586  W2        2320            0.0000000000
      6960      2320  TIP3      H2              8.1331912922        1.6922836235      -22.4388541586  W2        2320            0.0000000000
      6961      2321  TIP3      OH2            13.8259512922        1.9374836235      -21.7124041586  W2        2321            0.0000000000
      6962      2321  TIP3      H1             13.9021112922        2.0326436235      -22.6618041586  W2        2321            0.0000000000
      6963      2321  TIP3      H2             13.5508712922        1.0297736235      -21.5834941586  W2        2321            0.0000000000
      6964      2322  TIP3      OH2            15.1792112922        1.9632636235      -26.0199041586  W2        2322            0.0000000000
      6965      2322  TIP3      H1             14.4763212922        2.5781836235      -26.2297641586  W2        2322            0.0000000000
      6966      2322  TIP3      H2             14.7343512922        1.1259336235      -25.8888141586  W2        2322            0.0000000000
      6967      2323  TIP3      OH2             2.4271412922       17.7268236235      -26.4737641586  W2        2323            0.0000000000
      6968      2323  TIP3      H1              1.7421312922       17.6887136235      -27.1412541586  W2        2323            0.0000000000
      6969      2323  TIP3      H2              2.4308612922       18.6395836235      -26.1855541586  W2        2323            0.0000000000
      6970      2324  TIP3      OH2             4.3871012922        3.6947536235      -28.9288641586  W2        2324            0.0000000000
      6971      2324  TIP3      H1              4.8784412922        3.0649936235      -29.4563141586  W2        2324            0.0000000000
      6972      2324  TIP3      H2              5.0107312922        3.9906936235      -28.2657441586  W2        2324            0.0000000000
      6973      2325  TIP3      OH2             9.4131112922        3.9879036235      -26.4718141586  W2        2325            0.0000000000
      6974      2325  TIP3      H1              9.5912412922        3.3412236235      -25.7889541586  W2        2325            0.0000000000
      6975      2325  TIP3      H2              9.3597312922        4.8216736235      -26.0047041586  W2        2325            0.0000000000
      6976      2326  TIP3      OH2            11.2914912922       18.9363136235      -28.0761441586  W2        2326            0.0000000000
      6977      2326  TIP3      H1             12.1575112922       19.3030536235      -28.2543241586  W2        2326            0.0000000000
      6978      2326  TIP3      H2             11.0447712922       18.4971136235      -28.8900641586  W2        2326            0.0000000000
      6979      2327  TIP3      OH2            18.0004512922       18.4993436235      -25.3970341586  W2        2327            0.0000000000
      6980      2327  TIP3      H1             17.8061612922       17.7515536235      -25.9620741586  W2        2327            0.0000000000
      6981      2327  TIP3      H2             17.9614612922       19.2573536235      -25.9802441586  W2        2327            0.0000000000
      6982      2328  TIP3      OH2             3.6476512922        2.4949836235      -13.6572641586  W2        2328            0.0000000000
      6983      2328  TIP3      H1              3.2814712922        1.7292436235      -13.2147941586  W2        2328            0.0000000000
      6984      2328  TIP3      H2              4.5605012922        2.5240036235      -13.3707541586  W2        2328            0.0000000000
      6985      2329  TIP3      OH2             5.6207312922        1.8454236235      -12.1215541586  W2        2329            0.0000000000
      6986      2329  TIP3      H1              6.5190912922        1.5714436235      -12.3062141586  W2        2329            0.0000000000
      6987      2329  TIP3      H2              5.2340412922        1.1030236235      -11.6572941586  W2        2329            0.0000000000
      6988      2330  TIP3      OH2             4.2452612922       18.6469036235      -29.4485541586  W2        2330            0.0000000000
      6989      2330  TIP3      H1              3.9777212922       18.9331936235      -28.5752441586  W2        2330            0.0000000000
      6990      2330  TIP3      H2              5.0165212922       18.1008236235      -29.2963041586  W2        2330            0.0000000000
      6991      2331  TIP3      OH2            14.0419612922        1.1779536235      -11.9392741586  W2        2331            0.0000000000
      6992      2331  TIP3      H1             14.1186812922        0.7520236235      -11.0855041586  W2        2331            0.0000000000
      6993      2331  TIP3      H2             14.9356212922        1.1914236235      -12.2819241586  W2        2331            0.0000000000
      6994      2332  TIP3      OH2            17.2180712922       17.2505836235      -13.2468541586  W2        2332            0.0000000000
      6995      2332  TIP3      H1             16.4362612922       17.0643836235      -13.7667941586  W2        2332            0.0000000000
      6996      2332  TIP3      H2             17.1460612922       18.1800136235      -13.0296041586  W2        2332            0.0000000000
      6997      2333  TIP3      OH2            31.6241112922       11.1370236235      -23.2161341586  W2        2333            0.0000000000
      6998      2333  TIP3      H1             31.7132212922       12.0808436235      -23.3484241586  W2        2333            0.0000000000
      6999      2333  TIP3      H2             30.9858712922       10.8616636235      -23.8741941586  W2        2333            0.0000000000
      7000      2334  TIP3      OH2            30.5572412922       10.3920936235      -19.7973141586  W2        2334            0.0000000000
      7001      2334  TIP3      H1             30.5189912922        9.7457236235      -19.0923541586  W2        2334            0.0000000000
      7002      2334  TIP3      H2             30.2348912922        9.9255336235      -20.5684441586  W2        2334            0.0000000000
      7003      2335  TIP3      OH2            22.9257412922       10.0063036235      -18.2043241586  W2        2335            0.0000000000
      7004      2335  TIP3      H1             22.9669512922        9.3806336235      -17.4810841586  W2        2335            0.0000000000
      7005      2335  TIP3      H2             23.6285112922       10.6301636235      -18.0222841586  W2        2335            0.0000000000
      7006      2336  TIP3      OH2            34.2632612922       13.3311336235      -21.4958041586  W2        2336            0.0000000000
      7007      2336  TIP3      H1             33.8225312922       12.6107336235      -21.0452441586  W2        2336            0.0000000000
      7008      2336  TIP3      H2             34.2502312922       14.0518536235      -20.8660341586  W2        2336            0.0000000000
      7009      2337  TIP3      OH2            23.8490512922       14.4561936235      -19.6694141586  W2        2337            0.0000000000
      7010      2337  TIP3      H1             23.4795712922       13.6542436235      -20.0389841586  W2        2337            0.0000000000
      7011      2337  TIP3      H2             24.7901612922       14.2876836235      -19.6230741586  W2        2337            0.0000000000
      7012      2338  TIP3      OH2            20.4591012922        8.1164536235      -24.2765341586  W2        2338            0.0000000000
      7013      2338  TIP3      H1             20.0114412922        8.9623236235      -24.2948841586  W2        2338            0.0000000000
      7014      2338  TIP3      H2             19.8982212922        7.5368736235      -24.7920241586  W2        2338            0.0000000000
      7015      2339  TIP3      OH2            21.1697112922       10.2784136235      -22.1507341586  W2        2339            0.0000000000
      7016      2339  TIP3      H1             21.3830612922        9.5085736235      -21.6234341586  W2        2339            0.0000000000
      7017      2339  TIP3      H2             21.9074712922       10.3680836235      -22.7539741586  W2        2339            0.0000000000
      7018      2340  TIP3      OH2            31.3748112922       18.4353036235      -21.2837641586  W2        2340            0.0000000000
      7019      2340  TIP3      H1             31.9944512922       17.7587736235      -21.5568441586  W2        2340            0.0000000000
      7020      2340  TIP3      H2             31.1665512922       18.2173836235      -20.3752741586  W2        2340            0.0000000000
      7021      2341  TIP3      OH2            28.9466812922       12.8242336235      -19.3912141586  W2        2341            0.0000000000
      7022      2341  TIP3      H1             29.2504712922       12.1383736235      -19.9858041586  W2        2341            0.0000000000
      7023      2341  TIP3      H2             29.6680812922       12.9431036235      -18.7734141586  W2        2341            0.0000000000
      7024      2342  TIP3      OH2            32.0873812922        7.2184736235      -19.0637341586  W2        2342            0.0000000000
      7025      2342  TIP3      H1             32.2299712922        6.2721736235      -19.0435741586  W2        2342            0.0000000000
      7026      2342  TIP3      H2             31.9812812922        7.4254536235      -19.9922441586  W2        2342            0.0000000000
      7027      2343  TIP3      OH2            25.2422112922        5.3201136235      -21.7912541586  W2        2343            0.0000000000
      7028      2343  TIP3      H1             25.2853212922        6.1799636235      -22.2096241586  W2        2343            0.0000000000
      7029      2343  TIP3      H2             24.7846212922        4.7675836235      -22.4249341586  W2        2343            0.0000000000
      7030      2344  TIP3      OH2            32.9644812922        5.4506736235      -23.3904241586  W2        2344            0.0000000000
      7031      2344  TIP3      H1             33.6109112922        5.1219936235      -22.7656641586  W2        2344            0.0000000000
      7032      2344  TIP3      H2             33.4744212922        5.9685736235      -24.0132841586  W2        2344            0.0000000000
      7033      2345  TIP3      OH2            21.8623612922        7.7166936235      -21.0291141586  W2        2345            0.0000000000
      7034      2345  TIP3      H1             22.5160212922        7.1668636235      -20.5971041586  W2        2345            0.0000000000
      7035      2345  TIP3      H2             21.8862912922        7.4425936235      -21.9459141586  W2        2345            0.0000000000
      7036      2346  TIP3      OH2            27.0188112922        9.2668236235      -21.8139641586  W2        2346            0.0000000000
      7037      2346  TIP3      H1             27.6349112922        8.7403636235      -21.3045641586  W2        2346            0.0000000000
      7038      2346  TIP3      H2             26.4326912922        8.6266936235      -22.2176041586  W2        2346            0.0000000000
      7039      2347  TIP3      OH2            24.0524012922        4.2379536235      -17.7171741586  W2        2347            0.0000000000
      7040      2347  TIP3      H1             23.8335712922        4.7680136235      -18.4835741586  W2        2347            0.0000000000
      7041      2347  TIP3      H2             23.3844912922        4.4645036235      -17.0700341586  W2        2347            0.0000000000
      7042      2348  TIP3      OH2            31.4213812922       13.7380636235      -24.1732641586  W2        2348            0.0000000000
      7043      2348  TIP3      H1             31.1258912922       13.4152936235      -25.0245741586  W2        2348            0.0000000000
      7044      2348  TIP3      H2             31.0971612922       14.6377336235      -24.1320041586  W2        2348            0.0000000000
      7045      2349  TIP3      OH2            26.6215412922       11.9135236235      -17.4298041586  W2        2349            0.0000000000
      7046      2349  TIP3      H1             25.8814512922       12.5116736235      -17.3262841586  W2        2349            0.0000000000
      7047      2349  TIP3      H2             27.3354912922       12.4674836235      -17.7454441586  W2        2349            0.0000000000
      7048      2350  TIP3      OH2            34.7283212922        4.7416036235      -21.4098341586  W2        2350            0.0000000000
      7049      2350  TIP3      H1             34.5131212922        3.9759436235      -20.8772341586  W2        2350            0.0000000000
      7050      2350  TIP3      H2             35.3840612922        5.2140636235      -20.8969841586  W2        2350            0.0000000000
      7051      2351  TIP3      OH2            23.6461312922        6.1301336235      -19.7649541586  W2        2351            0.0000000000
      7052      2351  TIP3      H1             24.2597612922        6.7628936235      -19.3917141586  W2        2351            0.0000000000
      7053      2351  TIP3      H2             24.1582012922        5.6576336235      -20.4212641586  W2        2351            0.0000000000
      7054      2352  TIP3      OH2            25.0289712922       13.8778236235      -16.6426541586  W2        2352            0.0000000000
      7055      2352  TIP3      H1             25.0237312922       14.7571736235      -17.0207241586  W2        2352            0.0000000000
      7056      2352  TIP3      H2             24.1753812922       13.7942336235      -16.2176641586  W2        2352            0.0000000000
      7057      2353  TIP3      OH2            21.1500612922       13.5486136235      -25.8607241586  W2        2353            0.0000000000
      7058      2353  TIP3      H1             20.8781512922       13.7777136235      -26.7494341586  W2        2353            0.0000000000
      7059      2353  TIP3      H2             21.1956312922       14.3864936235      -25.4001941586  W2        2353            0.0000000000
      7060      2354  TIP3      OH2            34.7750312922       15.1702036235      -19.1478741586  W2        2354            0.0000000000
      7061      2354  TIP3      H1             33.8334012922       15.2285936235      -18.9861841586  W2        2354            0.0000000000
      7062      2354  TIP3      H2             35.0516412922       16.0762536235      -19.2849041586  W2        2354            0.0000000000
      7063      2355  TIP3      OH2            35.0757312922        3.4567336235      -17.7304841586  W2        2355            0.0000000000
      7064      2355  TIP3      H1             34.3396512922        4.0674436235      -17.7683541586  W2        2355            0.0000000000
      7065      2355  TIP3      H2             35.7591312922        3.8716336235      -18.2568441586  W2        2355            0.0000000000
      7066      2356  TIP3      OH2            28.0788712922        1.5434636235      -20.2646841586  W2        2356            0.0000000000
      7067      2356  TIP3      H1             27.9612912922        0.5950636235      -20.3188541586  W2        2356            0.0000000000
      7068      2356  TIP3      H2             27.2238812922        1.8760736235      -19.9915741586  W2        2356            0.0000000000
      7069      2357  TIP3      OH2            33.0271512922       16.9515536235      -22.5227141586  W2        2357            0.0000000000
      7070      2357  TIP3      H1             33.4523812922       16.2443436235      -23.0077541586  W2        2357            0.0000000000
      7071      2357  TIP3      H2             33.3441512922       17.7528236235      -22.9394941586  W2        2357            0.0000000000
      7072      2358  TIP3      OH2            34.1868012922       14.8524036235      -24.0140541586  W2        2358            0.0000000000
      7073      2358  TIP3      H1             33.9292812922       14.1624136235      -24.6254641586  W2        2358            0.0000000000
      7074      2358  TIP3      H2             34.2578812922       14.4095236235      -23.1684641586  W2        2358            0.0000000000
      7075      2359  TIP3      OH2            35.8728212922       13.4190736235      -15.5367041586  W2        2359            0.0000000000
      7076      2359  TIP3      H1             36.0124512922       12.8273236235      -16.2760041586  W2        2359            0.0000000000
      7077      2359  TIP3      H2             36.0401012922       14.2916636235      -15.8928241586  W2        2359            0.0000000000
      7078      2360  TIP3      OH2            30.3453612922       10.3810236235      -25.7641041586  W2        2360            0.0000000000
      7079      2360  TIP3      H1             29.6339112922       10.9159936235      -26.1160541586  W2        2360            0.0000000000
      7080      2360  TIP3      H2             31.0363212922       10.4362336235      -26.4242141586  W2        2360            0.0000000000
      7081      2361  TIP3      OH2            30.3992812922        8.8384536235      -28.7256041586  W2        2361            0.0000000000
      7082      2361  TIP3      H1             31.1002712922        8.8611436235      -28.0742041586  W2        2361            0.0000000000
      7083      2361  TIP3      H2             30.7015712922        8.2104236235      -29.3816741586  W2        2361            0.0000000000
      7084      2362  TIP3      OH2            33.7511312922       10.5903536235      -24.8125141586  W2        2362            0.0000000000
      7085      2362  TIP3      H1             33.0192312922       10.8187236235      -24.2394541586  W2        2362            0.0000000000
      7086      2362  TIP3      H2             34.1983512922        9.8766236235      -24.3577641586  W2        2362            0.0000000000
      7087      2363  TIP3      OH2            33.6484812922        8.7646136235      -15.7448141586  W2        2363            0.0000000000
      7088      2363  TIP3      H1             33.7283912922        9.5280536235      -15.1729641586  W2        2363            0.0000000000
      7089      2363  TIP3      H2             33.0472512922        9.0438536235      -16.4353041586  W2        2363            0.0000000000
      7090      2364  TIP3      OH2            25.3965012922       11.2209736235      -22.9300141586  W2        2364            0.0000000000
      7091      2364  TIP3      H1             25.0660212922       10.8503136235      -23.7483141586  W2        2364            0.0000000000
      7092      2364  TIP3      H2             25.9849112922       10.5503736235      -22.5831841586  W2        2364            0.0000000000
      7093      2365  TIP3      OH2            26.7632512922       14.6490336235      -20.2487941586  W2        2365            0.0000000000
      7094      2365  TIP3      H1             26.6683812922       14.0703436235      -21.0053341586  W2        2365            0.0000000000
      7095      2365  TIP3      H2             27.4926112922       14.2776036235      -19.7525141586  W2        2365            0.0000000000
      7096      2366  TIP3      OH2            25.7630512922        9.9895336235      -19.2965141586  W2        2366            0.0000000000
      7097      2366  TIP3      H1             26.3283012922       10.1109536235      -20.0593941586  W2        2366            0.0000000000
      7098      2366  TIP3      H2             26.0819412922       10.6270336235      -18.6576641586  W2        2366            0.0000000000
      7099      2367  TIP3      OH2            32.0722712922       15.4927236235      -18.5624641586  W2        2367            0.0000000000
      7100      2367  TIP3      H1             31.8319312922       16.1550336235      -17.9145441586  W2        2367            0.0000000000
      7101      2367  TIP3      H2             31.8740912922       14.6582436235      -18.1375041586  W2        2367            0.0000000000
      7102      2368  TIP3      OH2            26.6431212922       14.3888036235      -14.5793241586  W2        2368            0.0000000000
      7103      2368  TIP3      H1             26.3318712922       15.1711236235      -14.1240041586  W2        2368            0.0000000000
      7104      2368  TIP3      H2             25.9931412922       14.2357136235      -15.2651241586  W2        2368            0.0000000000
      7105      2369  TIP3      OH2            32.6220812922        9.7526436235      -27.1273941586  W2        2369            0.0000000000
      7106      2369  TIP3      H1             33.2016312922        9.9026736235      -26.3805041586  W2        2369            0.0000000000
      7107      2369  TIP3      H2             33.0360812922       10.2233836235      -27.8507541586  W2        2369            0.0000000000
      7108      2370  TIP3      OH2            23.5631112922       10.5869136235      -15.3507541586  W2        2370            0.0000000000
      7109      2370  TIP3      H1             23.6334312922       11.2375936235      -14.6522541586  W2        2370            0.0000000000
      7110      2370  TIP3      H2             22.6723312922       10.6896636235      -15.6856641586  W2        2370            0.0000000000
      7111      2371  TIP3      OH2            30.3485712922       16.4894936235      -23.6920841586  W2        2371            0.0000000000
      7112      2371  TIP3      H1             30.8223312922       16.7851236235      -22.9146641586  W2        2371            0.0000000000
      7113      2371  TIP3      H2             29.7855012922       17.2276536235      -23.9251241586  W2        2371            0.0000000000
      7114      2372  TIP3      OH2            24.8827112922       16.4603036235      -13.8159441586  W2        2372            0.0000000000
      7115      2372  TIP3      H1             24.8902412922       16.3242736235      -14.7633941586  W2        2372            0.0000000000
      7116      2372  TIP3      H2             23.9667512922       16.3431136235      -13.5639441586  W2        2372            0.0000000000
      7117      2373  TIP3      OH2            36.3209212922        1.5026836235      -27.3144241586  W2        2373            0.0000000000
      7118      2373  TIP3      H1             35.4209912922        1.6415836235      -27.0193641586  W2        2373            0.0000000000
      7119      2373  TIP3      H2             36.5727612922        2.3341436235      -27.7162541586  W2        2373            0.0000000000
      7120      2374  TIP3      OH2            24.3867712922       10.2904036235      -25.3407341586  W2        2374            0.0000000000
      7121      2374  TIP3      H1             24.0949012922       11.0585736235      -25.8316041586  W2        2374            0.0000000000
      7122      2374  TIP3      H2             23.7122912922        9.6310236235      -25.5035941586  W2        2374            0.0000000000
      7123      2375  TIP3      OH2            20.4797812922       12.6533236235      -16.5257541586  W2        2375            0.0000000000
      7124      2375  TIP3      H1             19.9786212922       12.6252636235      -17.3407841586  W2        2375            0.0000000000
      7125      2375  TIP3      H2             20.4851512922       11.7476436235      -16.2160241586  W2        2375            0.0000000000
      7126      2376  TIP3      OH2            20.2300512922       15.4337036235      -19.6417341586  W2        2376            0.0000000000
      7127      2376  TIP3      H1             21.1761112922       15.2894036235      -19.6607841586  W2        2376            0.0000000000
      7128      2376  TIP3      H2             20.1176812922       16.2179836235      -19.1046141586  W2        2376            0.0000000000
      7129      2377  TIP3      OH2            29.4063012922       15.6735936235      -15.0832241586  W2        2377            0.0000000000
      7130      2377  TIP3      H1             29.4937612922       16.5000536235      -14.6083141586  W2        2377            0.0000000000
      7131      2377  TIP3      H2             28.5428112922       15.3439736235      -14.8342941586  W2        2377            0.0000000000
      7132      2378  TIP3      OH2            29.8208812922       19.4459636235      -25.2771641586  W2        2378            0.0000000000
      7133      2378  TIP3      H1             29.7454812922       19.3246836235      -26.2236441586  W2        2378            0.0000000000
      7134      2378  TIP3      H2             29.8537512922       20.3952336235      -25.1587041586  W2        2378            0.0000000000
      7135      2379  TIP3      OH2            23.4742612922       18.2346636235      -23.4962641586  W2        2379            0.0000000000
      7136      2379  TIP3      H1             23.6263012922       17.8867036235      -22.6176141586  W2        2379            0.0000000000
      7137      2379  TIP3      H2             22.6233012922       17.8783936235      -23.7515441586  W2        2379            0.0000000000
      7138      2380  TIP3      OH2            32.9224812922       18.5999836235      -28.2749241586  W2        2380            0.0000000000
      7139      2380  TIP3      H1             33.2973212922       17.8555936235      -28.7456641586  W2        2380            0.0000000000
      7140      2380  TIP3      H2             32.9268512922       18.3300436235      -27.3565941586  W2        2380            0.0000000000
      7141      2381  TIP3      OH2            32.5912912922       18.5256936235      -25.5257041586  W2        2381            0.0000000000
      7142      2381  TIP3      H1             31.6562712922       18.6258836235      -25.3470041586  W2        2381            0.0000000000
      7143      2381  TIP3      H2             32.8714812922       17.8162936235      -24.9473841586  W2        2381            0.0000000000
      7144      2382  TIP3      OH2            35.5798812922        7.5929236235      -13.4791441586  W2        2382            0.0000000000
      7145      2382  TIP3      H1             35.1725612922        8.0734836235      -14.1998141586  W2        2382            0.0000000000
      7146      2382  TIP3      H2             35.6204512922        6.6875236235      -13.7870641586  W2        2382            0.0000000000
      7147      2383  TIP3      OH2            22.7288312922       13.9768636235      -15.4824741586  W2        2383            0.0000000000
      7148      2383  TIP3      H1             22.9449612922       13.6154236235      -14.6228941586  W2        2383            0.0000000000
      7149      2383  TIP3      H2             21.8733012922       13.6022436235      -15.6921241586  W2        2383            0.0000000000
      7150      2384  TIP3      OH2            25.3476312922        2.4469136235      -19.4870541586  W2        2384            0.0000000000
      7151      2384  TIP3      H1             24.4860012922        2.3597336235      -19.8947641586  W2        2384            0.0000000000
      7152      2384  TIP3      H2             25.3252012922        3.3029236235      -19.0592941586  W2        2384            0.0000000000
      7153      2385  TIP3      OH2            30.0104112922        2.1689536235      -16.1123541586  W2        2385            0.0000000000
      7154      2385  TIP3      H1             30.4307212922        1.7536636235      -15.3592941586  W2        2385            0.0000000000
      7155      2385  TIP3      H2             29.0773712922        1.9902836235      -15.9951541586  W2        2385            0.0000000000
      7156      2386  TIP3      OH2            33.3369012922        5.9244736235      -15.2589041586  W2        2386            0.0000000000
      7157      2386  TIP3      H1             32.8228512922        5.7986936235      -14.4613041586  W2        2386            0.0000000000
      7158      2386  TIP3      H2             33.1813712922        6.8367836235      -15.5032841586  W2        2386            0.0000000000
      7159      2387  TIP3      OH2            34.0993912922       10.7854736235      -29.4976041586  W2        2387            0.0000000000
      7160      2387  TIP3      H1             34.1414712922       10.5628636235      -30.4276041586  W2        2387            0.0000000000
      7161      2387  TIP3      H2             34.9486012922       11.1841836235      -29.3076141586  W2        2387            0.0000000000
      7162      2388  TIP3      OH2            29.6721412922        4.6612936235      -28.8272741586  W2        2388            0.0000000000
      7163      2388  TIP3      H1             29.4186212922        4.6804536235      -27.9044641586  W2        2388            0.0000000000
      7164      2388  TIP3      H2             29.4153512922        3.7898336235      -29.1286541586  W2        2388            0.0000000000
      7165      2389  TIP3      OH2            25.4386412922        7.4123636235      -18.3920341586  W2        2389            0.0000000000
      7166      2389  TIP3      H1             24.7968512922        7.3720936235      -17.6830241586  W2        2389            0.0000000000
      7167      2389  TIP3      H2             25.4758412922        8.3388336235      -18.6297341586  W2        2389            0.0000000000
      7168      2390  TIP3      OH2            25.4355512922        7.6333736235      -23.4800341586  W2        2390            0.0000000000
      7169      2390  TIP3      H1             24.5428412922        7.2929836235      -23.5386541586  W2        2390            0.0000000000
      7170      2390  TIP3      H2             25.8862112922        7.2564636235      -24.2357141586  W2        2390            0.0000000000
      7171      2391  TIP3      OH2            30.9711012922        8.0494036235      -24.6629541586  W2        2391            0.0000000000
      7172      2391  TIP3      H1             30.5621312922        8.8642636235      -24.9544741586  W2        2391            0.0000000000
      7173      2391  TIP3      H2             31.6917212922        7.9094136235      -25.2772441586  W2        2391            0.0000000000
      7174      2392  TIP3      OH2            30.0732612922        8.2250436235      -13.1748841586  W2        2392            0.0000000000
      7175      2392  TIP3      H1             29.5106412922        7.5202036235      -12.8541041586  W2        2392            0.0000000000
      7176      2392  TIP3      H2             30.8996012922        8.1042336235      -12.7071241586  W2        2392            0.0000000000
      7177      2393  TIP3      OH2            31.9758712922        7.4954436235      -21.8489841586  W2        2393            0.0000000000
      7178      2393  TIP3      H1             31.7803212922        8.1011236235      -22.5639241586  W2        2393            0.0000000000
      7179      2393  TIP3      H2             32.1571312922        6.6619636235      -22.2833541586  W2        2393            0.0000000000
      7180      2394  TIP3      OH2            23.1886912922        7.7327136235      -16.5248341586  W2        2394            0.0000000000
      7181      2394  TIP3      H1             23.1506312922        8.1328736235      -15.6561241586  W2        2394            0.0000000000
      7182      2394  TIP3      H2             22.6978012922        6.9159536235      -16.4345441586  W2        2394            0.0000000000
      7183      2395  TIP3      OH2            26.5544312922        5.1069436235      -29.7262341586  W2        2395            0.0000000000
      7184      2395  TIP3      H1             26.1235012922        4.6619536235      -28.9964941586  W2        2395            0.0000000000
      7185      2395  TIP3      H2             25.8363012922        5.4785736235      -30.2384841586  W2        2395            0.0000000000
      7186      2396  TIP3      OH2            19.7967712922        4.8488936235      -22.6743641586  W2        2396            0.0000000000
      7187      2396  TIP3      H1             20.4275412922        4.8201036235      -21.9549741586  W2        2396            0.0000000000
      7188      2396  TIP3      H2             20.2462012922        4.4237636235      -23.4047741586  W2        2396            0.0000000000
      7189      2397  TIP3      OH2            21.0709812922        5.5950936235      -27.2503241586  W2        2397            0.0000000000
      7190      2397  TIP3      H1             21.5451512922        6.1860836235      -27.8352341586  W2        2397            0.0000000000
      7191      2397  TIP3      H2             20.3536212922        6.1253836235      -26.9033141586  W2        2397            0.0000000000
      7192      2398  TIP3      OH2            31.2397912922        9.1335736235      -17.1777441586  W2        2398            0.0000000000
      7193      2398  TIP3      H1             31.5632712922        8.5025436235      -17.8206941586  W2        2398            0.0000000000
      7194      2398  TIP3      H2             30.7997212922        8.5987936235      -16.5170041586  W2        2398            0.0000000000
      7195      2399  TIP3      OH2            28.0170812922        5.0611236235      -22.3936241586  W2        2399            0.0000000000
      7196      2399  TIP3      H1             27.1061912922        5.1178036235      -22.1050241586  W2        2399            0.0000000000
      7197      2399  TIP3      H2             28.5223712922        5.0006736235      -21.5829041586  W2        2399            0.0000000000
      7198      2400  TIP3      OH2            22.8454212922        6.6897536235      -23.5668641586  W2        2400            0.0000000000
      7199      2400  TIP3      H1             21.9562212922        6.7893036235      -23.9069041586  W2        2400            0.0000000000
      7200      2400  TIP3      H2             23.1419112922        5.8480536235      -23.9130741586  W2        2400            0.0000000000
      7201      2401  TIP3      OH2            26.4986012922        6.6900136235      -25.9104041586  W2        2401            0.0000000000
      7202      2401  TIP3      H1             27.4301512922        6.8190136235      -25.7320941586  W2        2401            0.0000000000
      7203      2401  TIP3      H2             26.2836312922        7.3594436235      -26.5599341586  W2        2401            0.0000000000
      7204      2402  TIP3      OH2            32.4222712922        4.2957536235      -19.1294441586  W2        2402            0.0000000000
      7205      2402  TIP3      H1             31.7454312922        4.4270636235      -18.4654741586  W2        2402            0.0000000000
      7206      2402  TIP3      H2             31.9367612922        4.1407036235      -19.9396741586  W2        2402            0.0000000000
      7207      2403  TIP3      OH2            25.1726212922        7.8842336235      -28.3437941586  W2        2403            0.0000000000
      7208      2403  TIP3      H1             24.6301312922        7.5046136235      -29.0350341586  W2        2403            0.0000000000
      7209      2403  TIP3      H2             26.0061112922        8.0787036235      -28.7723841586  W2        2403            0.0000000000
      7210      2404  TIP3      OH2            35.7097812922       19.9672936235      -12.8526841586  W2        2404            0.0000000000
      7211      2404  TIP3      H1             35.9096512922       20.3914836235      -13.6871541586  W2        2404            0.0000000000
      7212      2404  TIP3      H2             36.3651512922       20.3111136235      -12.2456441586  W2        2404            0.0000000000
      7213      2405  TIP3      OH2            23.3077612922       12.4414236235      -13.2446341586  W2        2405            0.0000000000
      7214      2405  TIP3      H1             24.0400012922       12.6960136235      -12.6831841586  W2        2405            0.0000000000
      7215      2405  TIP3      H2             22.5276312922       12.6459636235      -12.7290941586  W2        2405            0.0000000000
      7216      2406  TIP3      OH2            29.3370512922        7.8484236235      -20.5066641586  W2        2406            0.0000000000
      7217      2406  TIP3      H1             29.9013912922        7.3020836235      -21.0537041586  W2        2406            0.0000000000
      7218      2406  TIP3      H2             29.1893912922        7.3266136235      -19.7179041586  W2        2406            0.0000000000
      7219      2407  TIP3      OH2            24.3390212922        3.9850336235      -24.0881841586  W2        2407            0.0000000000
      7220      2407  TIP3      H1             24.0219712922        3.0825636235      -24.1236441586  W2        2407            0.0000000000
      7221      2407  TIP3      H2             25.1204312922        3.9867736235      -24.6410241586  W2        2407            0.0000000000
      7222      2408  TIP3      OH2            27.9636412922        6.2370336235      -18.0926241586  W2        2408            0.0000000000
      7223      2408  TIP3      H1             27.1281712922        6.6909836235      -17.9823841586  W2        2408            0.0000000000
      7224      2408  TIP3      H2             28.4877012922        6.5128836235      -17.3406341586  W2        2408            0.0000000000
      7225      2409  TIP3      OH2            28.5079012922       12.4498036235      -26.4079841586  W2        2409            0.0000000000
      7226      2409  TIP3      H1             27.7630012922       11.9423336235      -26.7301941586  W2        2409            0.0000000000
      7227      2409  TIP3      H2             28.3736212922       12.4986036235      -25.4615041586  W2        2409            0.0000000000
      7228      2410  TIP3      OH2            35.6577912922       11.5826236235      -17.6212241586  W2        2410            0.0000000000
      7229      2410  TIP3      H1             36.2996712922       12.0392536235      -18.1650041586  W2        2410            0.0000000000
      7230      2410  TIP3      H2             34.8274812922       11.6958636235      -18.0838141586  W2        2410            0.0000000000
      7231      2411  TIP3      OH2            32.4055812922        5.2637936235      -28.2087241586  W2        2411            0.0000000000
      7232      2411  TIP3      H1             31.4670012922        5.3753536235      -28.3598441586  W2        2411            0.0000000000
      7233      2411  TIP3      H2             32.7027912922        6.1204836235      -27.9021541586  W2        2411            0.0000000000
      7234      2412  TIP3      OH2            30.0271112922       12.6341336235      -15.1710741586  W2        2412            0.0000000000
      7235      2412  TIP3      H1             29.6817212922       12.2523736235      -14.3641141586  W2        2412            0.0000000000
      7236      2412  TIP3      H2             29.8271212922       13.5674936235      -15.0997841586  W2        2412            0.0000000000
      7237      2413  TIP3      OH2            33.1239312922        7.1310636235      -26.5479841586  W2        2413            0.0000000000
      7238      2413  TIP3      H1             34.0158312922        6.9935636235      -26.2288641586  W2        2413            0.0000000000
      7239      2413  TIP3      H2             33.1802912922        7.9216736235      -27.0846341586  W2        2413            0.0000000000
      7240      2414  TIP3      OH2            23.6327312922       11.7448036235      -20.6381941586  W2        2414            0.0000000000
      7241      2414  TIP3      H1             24.3774512922       11.7423736235      -21.2395441586  W2        2414            0.0000000000
      7242      2414  TIP3      H2             23.7103912922       10.9211836235      -20.1566841586  W2        2414            0.0000000000
      7243      2415  TIP3      OH2            30.6333112922       13.9082336235      -27.3825241586  W2        2415            0.0000000000
      7244      2415  TIP3      H1             30.3381512922       14.7350236235      -27.0010441586  W2        2415            0.0000000000
      7245      2415  TIP3      H2             29.9303112922       13.2889236235      -27.1863841586  W2        2415            0.0000000000
      7246      2416  TIP3      OH2            20.6407012922       10.2054936235      -15.3233441586  W2        2416            0.0000000000
      7247      2416  TIP3      H1             20.8635612922        9.7874536235      -14.4915941586  W2        2416            0.0000000000
      7248      2416  TIP3      H2             20.0387112922        9.5929936235      -15.7460641586  W2        2416            0.0000000000
      7249      2417  TIP3      OH2            27.6571912922        9.7224836235      -13.1103741586  W2        2417            0.0000000000
      7250      2417  TIP3      H1             27.3612712922        9.5567836235      -14.0054641586  W2        2417            0.0000000000
      7251      2417  TIP3      H2             28.5887112922        9.5025136235      -13.1209841586  W2        2417            0.0000000000
      7252      2418  TIP3      OH2            32.2774712922       15.0956836235      -15.2205741586  W2        2418            0.0000000000
      7253      2418  TIP3      H1             31.3769012922       15.2789436235      -15.4881841586  W2        2418            0.0000000000
      7254      2418  TIP3      H2             32.3115812922       15.3546136235      -14.2996941586  W2        2418            0.0000000000
      7255      2419  TIP3      OH2            36.3039712922       16.1265136235      -26.3881041586  W2        2419            0.0000000000
      7256      2419  TIP3      H1             35.9310812922       15.3008936235      -26.0790441586  W2        2419            0.0000000000
      7257      2419  TIP3      H2             36.5813212922       15.9434536235      -27.2857641586  W2        2419            0.0000000000
      7258      2420  TIP3      OH2            33.4643612922       10.9344636235      -19.3669141586  W2        2420            0.0000000000
      7259      2420  TIP3      H1             32.5360512922       10.7026536235      -19.3939841586  W2        2420            0.0000000000
      7260      2420  TIP3      H2             33.9154712922       10.1574436235      -19.6970341586  W2        2420            0.0000000000
      7261      2421  TIP3      OH2            26.0076712922       15.2626236235      -23.2340441586  W2        2421            0.0000000000
      7262      2421  TIP3      H1             26.5348912922       16.0360636235      -23.4341641586  W2        2421            0.0000000000
      7263      2421  TIP3      H2             25.1275212922       15.4875436235      -23.5356441586  W2        2421            0.0000000000
      7264      2422  TIP3      OH2            21.7624412922       10.1250336235      -28.6468041586  W2        2422            0.0000000000
      7265      2422  TIP3      H1             22.3784312922       10.7517536235      -28.2673241586  W2        2422            0.0000000000
      7266      2422  TIP3      H2             20.9007012922       10.4410136235      -28.3751541586  W2        2422            0.0000000000
      7267      2423  TIP3      OH2            27.4349012922       12.9256136235      -23.6576141586  W2        2423            0.0000000000
      7268      2423  TIP3      H1             27.1939012922       13.8510536235      -23.6160841586  W2        2423            0.0000000000
      7269      2423  TIP3      H2             26.6942612922       12.4667436235      -23.2612241586  W2        2423            0.0000000000
      7270      2424  TIP3      OH2            27.9495612922       17.0749736235      -17.3425041586  W2        2424            0.0000000000
      7271      2424  TIP3      H1             28.3120312922       17.9295336235      -17.5760641586  W2        2424            0.0000000000
      7272      2424  TIP3      H2             28.4810812922       16.7831336235      -16.6018741586  W2        2424            0.0000000000
      7273      2425  TIP3      OH2            26.1179812922       17.9473736235      -24.1123941586  W2        2425            0.0000000000
      7274      2425  TIP3      H1             25.1680312922       18.0531136235      -24.0610641586  W2        2425            0.0000000000
      7275      2425  TIP3      H2             26.4697912922       18.7681136235      -23.7676441586  W2        2425            0.0000000000
      7276      2426  TIP3      OH2            31.4936412922       13.1740436235      -17.6419441586  W2        2426            0.0000000000
      7277      2426  TIP3      H1             31.0677712922       12.9462136235      -16.8155441586  W2        2426            0.0000000000
      7278      2426  TIP3      H2             32.0742212922       12.4352236235      -17.8244141586  W2        2426            0.0000000000
      7279      2427  TIP3      OH2            33.6965312922       14.1030936235      -28.5680441586  W2        2427            0.0000000000
      7280      2427  TIP3      H1             34.0498412922       13.7230736235      -27.7636941586  W2        2427            0.0000000000
      7281      2427  TIP3      H2             32.7478812922       14.0095736235      -28.4811141586  W2        2427            0.0000000000
      7282      2428  TIP3      OH2            34.1520612922       17.7259936235      -15.1724641586  W2        2428            0.0000000000
      7283      2428  TIP3      H1             33.5503812922       17.1702836235      -15.6678341586  W2        2428            0.0000000000
      7284      2428  TIP3      H2             34.4334312922       18.3929736235      -15.7987241586  W2        2428            0.0000000000
      7285      2429  TIP3      OH2            22.2746512922        4.9587636235      -15.7652041586  W2        2429            0.0000000000
      7286      2429  TIP3      H1             21.3818812922        5.2973036235      -15.8328041586  W2        2429            0.0000000000
      7287      2429  TIP3      H2             22.1759312922        4.1033736235      -15.3471241586  W2        2429            0.0000000000
      7288      2430  TIP3      OH2            34.5624612922       12.7752936235      -26.3412541586  W2        2430            0.0000000000
      7289      2430  TIP3      H1             34.2852212922       12.0472236235      -25.7851441586  W2        2430            0.0000000000
      7290      2430  TIP3      H2             35.4897612922       12.8944936235      -26.1359941586  W2        2430            0.0000000000
      7291      2431  TIP3      OH2            21.9258512922       16.7632036235      -17.3302641586  W2        2431            0.0000000000
      7292      2431  TIP3      H1             22.1428812922       15.8314436235      -17.3612941586  W2        2431            0.0000000000
      7293      2431  TIP3      H2             22.1722012922       17.0377036235      -16.4469841586  W2        2431            0.0000000000
      7294      2432  TIP3      OH2            27.7873112922       15.2147036235      -30.1210441586  W2        2432            0.0000000000
      7295      2432  TIP3      H1             28.0262912922       14.4665136235      -30.6681541586  W2        2432            0.0000000000
      7296      2432  TIP3      H2             27.5184412922       14.8268736235      -29.2882641586  W2        2432            0.0000000000
      7297      2433  TIP3      OH2            26.7243712922       14.7850836235      -27.6647841586  W2        2433            0.0000000000
      7298      2433  TIP3      H1             26.8711712922       14.2650636235      -26.8746941586  W2        2433            0.0000000000
      7299      2433  TIP3      H2             26.7215412922       15.6918436235      -27.3581941586  W2        2433            0.0000000000
      7300      2434  TIP3      OH2            23.1774812922       12.0374136235      -27.1542441586  W2        2434            0.0000000000
      7301      2434  TIP3      H1             22.4914112922       12.3896636235      -26.5872741586  W2        2434            0.0000000000
      7302      2434  TIP3      H2             23.7002712922       12.8003736235      -27.4008141586  W2        2434            0.0000000000
      7303      2435  TIP3      OH2            31.0089912922        4.6997936235      -16.8753441586  W2        2435            0.0000000000
      7304      2435  TIP3      H1             31.7077812922        4.7736636235      -16.2253741586  W2        2435            0.0000000000
      7305      2435  TIP3      H2             30.6281312922        3.8352936235      -16.7210541586  W2        2435            0.0000000000
      7306      2436  TIP3      OH2            31.7934812922        4.3519636235      -25.7781141586  W2        2436            0.0000000000
      7307      2436  TIP3      H1             32.0133112922        4.8235036235      -26.5815741586  W2        2436            0.0000000000
      7308      2436  TIP3      H2             32.3518812922        4.7462236235      -25.1080541586  W2        2436            0.0000000000
      7309      2437  TIP3      OH2            29.4620912922       16.4824436235      -26.9153641586  W2        2437            0.0000000000
      7310      2437  TIP3      H1             28.6457012922       16.9794136235      -26.8629341586  W2        2437            0.0000000000
      7311      2437  TIP3      H2             29.9917212922       16.9577936235      -27.5554841586  W2        2437            0.0000000000
      7312      2438  TIP3      OH2            28.9934712922        6.0798436235      -24.9432741586  W2        2438            0.0000000000
      7313      2438  TIP3      H1             29.8057312922        6.5841636235      -24.8971041586  W2        2438            0.0000000000
      7314      2438  TIP3      H2             28.7487712922        5.9348136235      -24.0293141586  W2        2438            0.0000000000
      7315      2439  TIP3      OH2            29.5291112922        7.0661136235      -15.7586141586  W2        2439            0.0000000000
      7316      2439  TIP3      H1             29.6481412922        7.6396536235      -15.0015741586  W2        2439            0.0000000000
      7317      2439  TIP3      H2             30.1845712922        6.3780536235      -15.6438341586  W2        2439            0.0000000000
      7318      2440  TIP3      OH2            29.8771412922        3.1611436235      -24.0051641586  W2        2440            0.0000000000
      7319      2440  TIP3      H1             29.5304912922        3.7782036235      -23.3607341586  W2        2440            0.0000000000
      7320      2440  TIP3      H2             30.5358312922        3.6617136235      -24.4866141586  W2        2440            0.0000000000
      7321      2441  TIP3      OH2            26.8004012922       17.5261636235      -26.9336741586  W2        2441            0.0000000000
      7322      2441  TIP3      H1             26.9612712922       18.3259136235      -27.4344141586  W2        2441            0.0000000000
      7323      2441  TIP3      H2             26.6031812922       17.8327636235      -26.0486141586  W2        2441            0.0000000000
      7324      2442  TIP3      OH2            25.5348412922        4.2240836235      -27.3179141586  W2        2442            0.0000000000
      7325      2442  TIP3      H1             25.4513212922        5.1123936235      -26.9712741586  W2        2442            0.0000000000
      7326      2442  TIP3      H2             26.4248712922        3.9587536235      -27.0862341586  W2        2442            0.0000000000
      7327      2443  TIP3      OH2            35.7336912922        4.9731436235      -14.9236441586  W2        2443            0.0000000000
      7328      2443  TIP3      H1             34.8172712922        5.2353136235      -15.0112741586  W2        2443            0.0000000000
      7329      2443  TIP3      H2             36.0691912922        4.9700436235      -15.8201141586  W2        2443            0.0000000000
      7330      2444  TIP3      OH2            34.3357912922        8.7232436235      -20.8279141586  W2        2444            0.0000000000
      7331      2444  TIP3      H1             33.5382312922        8.3082636235      -21.1564141586  W2        2444            0.0000000000
      7332      2444  TIP3      H2             34.7809012922        8.0326136235      -20.3368641586  W2        2444            0.0000000000
      7333      2445  TIP3      OH2            23.7933712922       14.6513036235      -28.2574641586  W2        2445            0.0000000000
      7334      2445  TIP3      H1             24.3855212922       15.3507836235      -27.9812241586  W2        2445            0.0000000000
      7335      2445  TIP3      H2             24.2526712922       14.2182536235      -28.9770041586  W2        2445            0.0000000000
      7336      2446  TIP3      OH2            22.1092912922        7.3156036235      -29.1415241586  W2        2446            0.0000000000
      7337      2446  TIP3      H1             22.0645512922        8.2549136235      -28.9628241586  W2        2446            0.0000000000
      7338      2446  TIP3      H2             21.2216112922        7.0800936235      -29.4113141586  W2        2446            0.0000000000
      7339      2447  TIP3      OH2            35.4222512922       17.9794936235      -19.2055641586  W2        2447            0.0000000000
      7340      2447  TIP3      H1             35.2666812922       18.6579336235      -19.8626341586  W2        2447            0.0000000000
      7341      2447  TIP3      H2             36.3548912922       18.0514236235      -19.0025041586  W2        2447            0.0000000000
      7342      2448  TIP3      OH2            22.9174912922        2.0972636235      -20.4684241586  W2        2448            0.0000000000
      7343      2448  TIP3      H1             22.6884712922        2.1565136235      -21.3959241586  W2        2448            0.0000000000
      7344      2448  TIP3      H2             22.4748312922        1.3058136235      -20.1620141586  W2        2448            0.0000000000
      7345      2449  TIP3      OH2            21.8478212922       16.0379736235      -24.3078441586  W2        2449            0.0000000000
      7346      2449  TIP3      H1             21.0156812922       16.5102436235      -24.2807041586  W2        2449            0.0000000000
      7347      2449  TIP3      H2             22.3936512922       16.5477336235      -24.9065341586  W2        2449            0.0000000000
      7348      2450  TIP3      OH2            21.1361912922       18.6503436235      -12.9780441586  W2        2450            0.0000000000
      7349      2450  TIP3      H1             21.6764112922       18.4337436235      -12.2181241586  W2        2450            0.0000000000
      7350      2450  TIP3      H2             20.6549912922       17.8449436235      -13.1677941586  W2        2450            0.0000000000
      7351      2451  TIP3      OH2            25.7335312922       17.5697836235      -11.3576241586  W2        2451            0.0000000000
      7352      2451  TIP3      H1             26.5012512922       17.1108636235      -11.0167041586  W2        2451            0.0000000000
      7353      2451  TIP3      H2             25.7121512922       17.3437636235      -12.2875041586  W2        2451            0.0000000000
      7354      2452  TIP3      OH2            29.8254912922       17.0778436235      -29.9824441586  W2        2452            0.0000000000
      7355      2452  TIP3      H1             29.1815912922       16.4467036235      -29.6610741586  W2        2452            0.0000000000
      7356      2452  TIP3      H2             30.5873212922       16.5466436235      -30.2140941586  W2        2452            0.0000000000
      7357      2453  TIP3      OH2            32.3104012922       15.9498936235      -12.6284741586  W2        2453            0.0000000000
      7358      2453  TIP3      H1             31.9593512922       15.0931936235      -12.3854341586  W2        2453            0.0000000000
      7359      2453  TIP3      H2             33.0367212922       16.0925636235      -12.0215741586  W2        2453            0.0000000000
      7360      2454  TIP3      OH2            34.4297812922       16.8948336235      -29.7486441586  W2        2454            0.0000000000
      7361      2454  TIP3      H1             34.7128212922       16.1003536235      -29.2959541586  W2        2454            0.0000000000
      7362      2454  TIP3      H2             35.1695712922       17.1279336235      -30.3095341586  W2        2454            0.0000000000
      7363      2455  TIP3      OH2            21.0431412922       12.4607536235      -12.0236141586  W2        2455            0.0000000000
      7364      2455  TIP3      H1             21.1871912922       11.5588236235      -12.3099441586  W2        2455            0.0000000000
      7365      2455  TIP3      H2             20.2708812922       12.7469636235      -12.5113841586  W2        2455            0.0000000000
      7366      2456  TIP3      OH2            25.3845112922       12.8043236235      -29.8911541586  W2        2456            0.0000000000
      7367      2456  TIP3      H1             25.4489212922       12.0102836235      -29.3605141586  W2        2456            0.0000000000
      7368      2456  TIP3      H2             26.0374312922       12.6856036235      -30.5809541586  W2        2456            0.0000000000
      7369      2457  TIP3      OH2            27.6987512922       12.4305636235      -12.5909741586  W2        2457            0.0000000000
      7370      2457  TIP3      H1             27.3701312922       12.7013736235      -13.4482341586  W2        2457            0.0000000000
      7371      2457  TIP3      H2             27.8505712922       11.4895436235      -12.6784741586  W2        2457            0.0000000000
      7372      2458  TIP3      OH2            30.7368512922       13.8514936235      -30.1553541586  W2        2458            0.0000000000
      7373      2458  TIP3      H1             30.4682612922       14.0317036235      -29.2544641586  W2        2458            0.0000000000
      7374      2458  TIP3      H2             30.5304112922       12.9261136235      -30.2867741586  W2        2458            0.0000000000
      7375      2459  TIP3      OH2            33.4332712922       12.3462936235      -15.2077441586  W2        2459            0.0000000000
      7376      2459  TIP3      H1             34.1787512922       12.9346636235      -15.3273441586  W2        2459            0.0000000000
      7377      2459  TIP3      H2             32.6759512922       12.9282636235      -15.1444341586  W2        2459            0.0000000000
      7378      2460  TIP3      OH2            21.8757912922        9.6610836235      -12.6036841586  W2        2460            0.0000000000
      7379      2460  TIP3      H1             22.2839112922        8.8037436235      -12.7246241586  W2        2460            0.0000000000
      7380      2460  TIP3      H2             21.6155512922        9.6752136235      -11.6826541586  W2        2460            0.0000000000
      7381      2461  TIP3      OH2            26.5338912922       10.7769436235      -27.5853541586  W2        2461            0.0000000000
      7382      2461  TIP3      H1             26.0740912922       10.2927736235      -26.8995041586  W2        2461            0.0000000000
      7383      2461  TIP3      H2             26.7887612922       10.1084836235      -28.2213041586  W2        2461            0.0000000000
      7384      2462  TIP3      OH2            25.8228212922        8.6696536235      -15.2293941586  W2        2462            0.0000000000
      7385      2462  TIP3      H1             25.2044312922        9.3443136235      -14.9489241586  W2        2462            0.0000000000
      7386      2462  TIP3      H2             26.1669412922        8.9910436235      -16.0627741586  W2        2462            0.0000000000
      7387      2463  TIP3      OH2            27.6049312922        9.0201236235      -29.3230341586  W2        2463            0.0000000000
      7388      2463  TIP3      H1             27.4244312922        8.8652436235      -30.2502041586  W2        2463            0.0000000000
      7389      2463  TIP3      H2             28.5549812922        9.1279936235      -29.2782441586  W2        2463            0.0000000000
      7390      2464  TIP3      OH2            30.8426412922       11.1411836235      -11.9519141586  W2        2464            0.0000000000
      7391      2464  TIP3      H1             31.7957612922       11.2250936235      -11.9793141586  W2        2464            0.0000000000
      7392      2464  TIP3      H2             30.6821012922       10.4293636235      -11.3324241586  W2        2464            0.0000000000
      7393      2465  TIP3      OH2            26.1621912922        6.0247336235      -14.1470841586  W2        2465            0.0000000000
      7394      2465  TIP3      H1             26.3122812922        5.2958636235      -14.7491141586  W2        2465            0.0000000000
      7395      2465  TIP3      H2             26.1644312922        6.8019036235      -14.7058641586  W2        2465            0.0000000000
      7396      2466  TIP3      OH2            26.5747612922        4.3943136235      -16.6543441586  W2        2466            0.0000000000
      7397      2466  TIP3      H1             27.1105112922        4.8459836235      -17.3064141586  W2        2466            0.0000000000
      7398      2466  TIP3      H2             25.7227212922        4.2862936235      -17.0769341586  W2        2466            0.0000000000
      7399      2467  TIP3      OH2            28.1566012922        9.8339336235      -16.4148241586  W2        2467            0.0000000000
      7400      2467  TIP3      H1             28.9070812922        9.6776836235      -16.9880441586  W2        2467            0.0000000000
      7401      2467  TIP3      H2             27.8174312922       10.6855936235      -16.6902741586  W2        2467            0.0000000000
      7402      2468  TIP3      OH2            32.5722212922        7.6491136235      -11.3862941586  W2        2468            0.0000000000
      7403      2468  TIP3      H1             32.7643512922        6.7180536235      -11.4978441586  W2        2468            0.0000000000
      7404      2468  TIP3      H2             33.4298512922        8.0740636235      -11.3967541586  W2        2468            0.0000000000
      7405      2469  TIP3      OH2            33.8889412922       10.4376336235      -13.3090241586  W2        2469            0.0000000000
      7406      2469  TIP3      H1             33.6074412922       11.1470936235      -13.8866441586  W2        2469            0.0000000000
      7407      2469  TIP3      H2             34.8313712922       10.3649336235      -13.4599041586  W2        2469            0.0000000000
      7408      2470  TIP3      OH2            24.6408212922        7.2230836235      -12.2355241586  W2        2470            0.0000000000
      7409      2470  TIP3      H1             23.8737212922        6.6905636235      -12.4457641586  W2        2470            0.0000000000
      7410      2470  TIP3      H2             25.3197212922        6.9131236235      -12.8348941586  W2        2470            0.0000000000
      7411      2471  TIP3      OH2            27.3803112922        1.8508836235      -16.2229841586  W2        2471            0.0000000000
      7412      2471  TIP3      H1             27.2822712922        2.7972036235      -16.3283641586  W2        2471            0.0000000000
      7413      2471  TIP3      H2             26.6379312922        1.4782636235      -16.6986341586  W2        2471            0.0000000000
      7414      2472  TIP3      OH2            28.6443612922        6.1724236235      -12.6591441586  W2        2472            0.0000000000
      7415      2472  TIP3      H1             28.4089012922        5.9530936235      -11.7576541586  W2        2472            0.0000000000
      7416      2472  TIP3      H2             27.8610512922        5.9655436235      -13.1688941586  W2        2472            0.0000000000
      7417      2473  TIP3      OH2            31.3600212922        5.2997736235      -13.5837941586  W2        2473            0.0000000000
      7418      2473  TIP3      H1             30.4125612922        5.3317436235      -13.4514641586  W2        2473            0.0000000000
      7419      2473  TIP3      H2             31.6726912922        4.6744836235      -12.9299741586  W2        2473            0.0000000000
      7420      2474  TIP3      OH2            32.9941712922        3.9338836235      -11.5786041586  W2        2474            0.0000000000
      7421      2474  TIP3      H1             32.8973512922        2.9816136235      -11.5844141586  W2        2474            0.0000000000
      7422      2474  TIP3      H2             32.6724812922        4.2025636235      -10.7180541586  W2        2474            0.0000000000
      7423      2475  TIP3      OH2            22.8211012922        5.1434636235      -12.5310541586  W2        2475            0.0000000000
      7424      2475  TIP3      H1             23.0328412922        4.4370736235      -13.1413041586  W2        2475            0.0000000000
      7425      2475  TIP3      H2             22.7098512922        4.7060636235      -11.6869341586  W2        2475            0.0000000000
      7426      2476  TIP3      OH2            27.6021212922        1.1446236235      -13.5517041586  W2        2476            0.0000000000
      7427      2476  TIP3      H1             28.3139612922        0.5048436235      -13.5657941586  W2        2476            0.0000000000
      7428      2476  TIP3      H2             27.5011612922        1.4114536235      -14.4653941586  W2        2476            0.0000000000
      7429      2477  TIP3      OH2            27.9558712922        2.8274636235      -11.4980741586  W2        2477            0.0000000000
      7430      2477  TIP3      H1             27.8240912922        2.3518436235      -12.3182241586  W2        2477            0.0000000000
      7431      2477  TIP3      H2             27.3566112922        3.5718236235      -11.5533641586  W2        2477            0.0000000000
      7432      2478  TIP3      OH2            27.5021012922       19.7104936235      -28.3216741586  W2        2478            0.0000000000
      7433      2478  TIP3      H1             28.4351712922       19.8683636235      -28.1778341586  W2        2478            0.0000000000
      7434      2478  TIP3      H2             27.2379812922       20.3857936235      -28.9465241586  W2        2478            0.0000000000
      7435      2479  TIP3      OH2            21.0705912922       14.3468736235      -28.8388641586  W2        2479            0.0000000000
      7436      2479  TIP3      H1             21.9845112922       14.4257636235      -28.5654741586  W2        2479            0.0000000000
      7437      2479  TIP3      H2             21.0779012922       13.6598336235      -29.5053041586  W2        2479            0.0000000000
      7438      2480  TIP3      OH2            19.7196512922       19.7397236235      -23.7614741586  W2        2480            0.0000000000
      7439      2480  TIP3      H1             19.0723612922       19.2778936235      -24.2943541586  W2        2480            0.0000000000
      7440      2480  TIP3      H2             20.0741112922       19.0680536235      -23.1788541586  W2        2480            0.0000000000
      7441      2481  TIP3      OH2            20.5895712922       17.8204236235      -21.9568541586  W2        2481            0.0000000000
      7442      2481  TIP3      H1             20.2552512922       16.9401536235      -21.7848341586  W2        2481            0.0000000000
      7443      2481  TIP3      H2             20.8118112922       18.1659236235      -21.0922941586  W2        2481            0.0000000000
      7444      2482  TIP3      OH2            36.1520712922       13.9869836235      -11.4164341586  W2        2482            0.0000000000
      7445      2482  TIP3      H1             35.2861812922       13.8819536235      -11.0222041586  W2        2482            0.0000000000
      7446      2482  TIP3      H2             36.5286612922       14.7453136235      -10.9699641586  W2        2482            0.0000000000
      7447      2483  TIP3      OH2            36.0929512922       15.9595936235      -16.8240141586  W2        2483            0.0000000000
      7448      2483  TIP3      H1             35.4454812922       16.2847436235      -16.1984941586  W2        2483            0.0000000000
      7449      2483  TIP3      H2             35.5753512922       15.5193636235      -17.4981841586  W2        2483            0.0000000000
      7450      2484  TIP3      OH2            36.4648112922        7.4375036235      -29.1367741586  W2        2484            0.0000000000
      7451      2484  TIP3      H1             36.5612512922        8.1042036235      -29.8168041586  W2        2484            0.0000000000
      7452      2484  TIP3      H2             36.3247712922        6.6221336235      -29.6182241586  W2        2484            0.0000000000
      7453      2485  TIP3      OH2            35.6342812922        8.8177436235      -23.5157441586  W2        2485            0.0000000000
      7454      2485  TIP3      H1             35.4841612922        7.8726036235      -23.5359641586  W2        2485            0.0000000000
      7455      2485  TIP3      H2             35.2807312922        9.0988836235      -22.6718341586  W2        2485            0.0000000000
      7456      2486  TIP3      OH2            20.6695212922       10.8959636235      -19.5053641586  W2        2486            0.0000000000
      7457      2486  TIP3      H1             20.8538112922       10.8141336235      -20.4410741586  W2        2486            0.0000000000
      7458      2486  TIP3      H2             21.5188112922       10.7716636235      -19.0817241586  W2        2486            0.0000000000
      7459      2487  TIP3      OH2            36.4905712922       10.7880736235      -13.8769141586  W2        2487            0.0000000000
      7460      2487  TIP3      H1             37.0733012922       10.0533036235      -13.6851941586  W2        2487            0.0000000000
      7461      2487  TIP3      H2             37.0545012922       11.5601036235      -13.8303341586  W2        2487            0.0000000000
      7462      2488  TIP3      OH2            35.7121912922        4.8454836235      -30.0192241586  W2        2488            0.0000000000
      7463      2488  TIP3      H1             36.3227712922        4.4741636235      -29.3824041586  W2        2488            0.0000000000
      7464      2488  TIP3      H2             34.8753412922        4.4241736235      -29.8232241586  W2        2488            0.0000000000
      7465      2489  TIP3      OH2            35.3447612922        6.4003236235      -25.0532341586  W2        2489            0.0000000000
      7466      2489  TIP3      H1             35.6244712922        5.4933636235      -24.9290641586  W2        2489            0.0000000000
      7467      2489  TIP3      H2             36.1039312922        6.8344736235      -25.4423141586  W2        2489            0.0000000000
      7468      2490  TIP3      OH2            35.9565912922        6.9820636235      -19.6173441586  W2        2490            0.0000000000
      7469      2490  TIP3      H1             36.8893912922        7.1940536235      -19.6517441586  W2        2490            0.0000000000
      7470      2490  TIP3      H2             35.7213412922        7.0832736235      -18.6950441586  W2        2490            0.0000000000
      7471      2491  TIP3      OH2            35.9857812922        7.7185936235      -16.8414041586  W2        2491            0.0000000000
      7472      2491  TIP3      H1             35.1429112922        7.9866336235      -16.4754241586  W2        2491            0.0000000000
      7473      2491  TIP3      H2             36.4282112922        8.5407836235      -17.0522941586  W2        2491            0.0000000000
      7474      2492  TIP3      OH2            20.2670012922        6.1664636235      -13.3644841586  W2        2492            0.0000000000
      7475      2492  TIP3      H1             21.1864912922        6.0442936235      -13.1281741586  W2        2492            0.0000000000
      7476      2492  TIP3      H2             19.8174512922        5.4164336235      -12.9751341586  W2        2492            0.0000000000
      7477      2493  TIP3      OH2            35.9582412922        3.6632536235      -25.0050341586  W2        2493            0.0000000000
      7478      2493  TIP3      H1             36.1407412922        3.2144036235      -24.1795341586  W2        2493            0.0000000000
      7479      2493  TIP3      H2             35.3585312922        3.0786936235      -25.4685741586  W2        2493            0.0000000000
      7480      2494  TIP3      OH2            21.4882512922        4.4786236235      -20.4731941586  W2        2494            0.0000000000
      7481      2494  TIP3      H1             21.9334112922        3.6868736235      -20.1712241586  W2        2494            0.0000000000
      7482      2494  TIP3      H2             21.9545512922        5.1951436235      -20.0426341586  W2        2494            0.0000000000
      7483      2495  TIP3      OH2            19.7922812922        7.4779236235      -19.4041741586  W2        2495            0.0000000000
      7484      2495  TIP3      H1             20.2842612922        7.2569736235      -20.1949741586  W2        2495            0.0000000000
      7485      2495  TIP3      H2             20.1543712922        8.3182636235      -19.1232241586  W2        2495            0.0000000000
      7486      2496  TIP3      OH2            20.1059312922        3.7358336235      -25.3499341586  W2        2496            0.0000000000
      7487      2496  TIP3      H1             19.1807712922        3.9444936235      -25.4793841586  W2        2496            0.0000000000
      7488      2496  TIP3      H2             20.5599212922        4.2199136235      -26.0397041586  W2        2496            0.0000000000
      7489      2497  TIP3      OH2            34.8766512922       18.7200036235      -23.4041941586  W2        2497            0.0000000000
      7490      2497  TIP3      H1             35.5289412922       18.3722136235      -24.0122841586  W2        2497            0.0000000000
      7491      2497  TIP3      H2             35.3870312922       19.2083236235      -22.7582241586  W2        2497            0.0000000000
      7492      2498  TIP3      OH2            20.0694712922        2.4737336235      -17.0056841586  W2        2498            0.0000000000
      7493      2498  TIP3      H1             19.4045212922        2.2277636235      -16.3625941586  W2        2498            0.0000000000
      7494      2498  TIP3      H2             19.6266012922        3.0957736235      -17.5828841586  W2        2498            0.0000000000
      7495      2499  TIP3      OH2            22.2614012922       15.6491436235      -12.8611041586  W2        2499            0.0000000000
      7496      2499  TIP3      H1             21.4406512922       15.8237936235      -13.3216341586  W2        2499            0.0000000000
      7497      2499  TIP3      H2             22.0091812922       15.5756136235      -11.9406641586  W2        2499            0.0000000000
      7498      2500  TIP3      OH2            25.2156912922       16.6232636235      -16.6027041586  W2        2500            0.0000000000
      7499      2500  TIP3      H1             24.7908012922       17.4331136235      -16.8852441586  W2        2500            0.0000000000
      7500      2500  TIP3      H2             26.1199712922       16.7086736235      -16.9047241586  W2        2500            0.0000000000
      7501      2501  TIP3      OH2            29.5268312922       18.0222636235      -13.6433341586  W2        2501            0.0000000000
      7502      2501  TIP3      H1             29.7115812922       17.6888736235      -12.7653041586  W2        2501            0.0000000000
      7503      2501  TIP3      H2             30.3732812922       18.3321236235      -13.9654141586  W2        2501            0.0000000000
      7504      2502  TIP3      OH2            31.8718712922       19.3081536235      -14.3991941586  W2        2502            0.0000000000
      7505      2502  TIP3      H1             32.5487612922       18.6753836235      -14.6392741586  W2        2502            0.0000000000
      7506      2502  TIP3      H2             32.1937512922       19.7092036235      -13.5918641586  W2        2502            0.0000000000
      7507      2503  TIP3      OH2            22.6173612922       19.8796536235      -16.5551741586  W2        2503            0.0000000000
      7508      2503  TIP3      H1             21.8970012922       20.3197536235      -17.0064041586  W2        2503            0.0000000000
      7509      2503  TIP3      H2             22.2517612922       19.6291236235      -15.7067741586  W2        2503            0.0000000000
      7510      2504  TIP3      OH2            25.0846212922       19.4800436235      -17.5254541586  W2        2504            0.0000000000
      7511      2504  TIP3      H1             24.2198412922       19.5518936235      -17.1214441586  W2        2504            0.0000000000
      7512      2504  TIP3      H2             25.0295212922       20.0267736235      -18.3092041586  W2        2504            0.0000000000
      7513      2505  TIP3      OH2            29.7951812922       19.3679336235      -18.3498541586  W2        2505            0.0000000000
      7514      2505  TIP3      H1             29.3385812922       19.8969036235      -19.0040141586  W2        2505            0.0000000000
      7515      2505  TIP3      H2             29.9579812922       19.9710736235      -17.6246241586  W2        2505            0.0000000000
      7516      2506  TIP3      OH2            32.1228112922       18.2458936235      -17.4048241586  W2        2506            0.0000000000
      7517      2506  TIP3      H1             31.2181812922       18.4109136235      -17.6706141586  W2        2506            0.0000000000
      7518      2506  TIP3      H2             32.5516712922       19.0991136235      -17.4704841586  W2        2506            0.0000000000
      7519      2507  TIP3      OH2            34.7270012922       19.8158036235      -17.1100441586  W2        2507            0.0000000000
      7520      2507  TIP3      H1             34.5452012922       20.7316936235      -17.3205541586  W2        2507            0.0000000000
      7521      2507  TIP3      H2             34.9037812922       19.4055136235      -17.9565841586  W2        2507            0.0000000000
      7522      2508  TIP3      OH2            22.0321712922       18.5029036235      -19.6449941586  W2        2508            0.0000000000
      7523      2508  TIP3      H1             22.0137712922       18.0774136235      -18.7877641586  W2        2508            0.0000000000
      7524      2508  TIP3      H2             22.8369612922       18.1844036235      -20.0537741586  W2        2508            0.0000000000
      7525      2509  TIP3      OH2            24.1734812922       17.2127736235      -20.9900041586  W2        2509            0.0000000000
      7526      2509  TIP3      H1             23.9545512922       16.2965136235      -20.8204041586  W2        2509            0.0000000000
      7527      2509  TIP3      H2             24.9977012922       17.3528136235      -20.5238641586  W2        2509            0.0000000000
      7528      2510  TIP3      OH2            26.7107312922       17.6827036235      -20.1412041586  W2        2510            0.0000000000
      7529      2510  TIP3      H1             26.9233012922       16.7946036235      -20.4281141586  W2        2510            0.0000000000
      7530      2510  TIP3      H2             26.7752412922       17.6484736235      -19.1868041586  W2        2510            0.0000000000
      7531      2511  TIP3      OH2            30.2191012922        3.3467636235      -20.9968741586  W2        2511            0.0000000000
      7532      2511  TIP3      H1             29.5447812922        2.7173236235      -20.7412941586  W2        2511            0.0000000000
      7533      2511  TIP3      H2             30.7830212922        2.8626536235      -21.6000841586  W2        2511            0.0000000000
      7534      2512  TIP3      OH2            35.3618212922        1.4541636235      -20.8841641586  W2        2512            0.0000000000
      7535      2512  TIP3      H1             35.9655812922        2.0017036235      -21.3860641586  W2        2512            0.0000000000
      7536      2512  TIP3      H2             34.4920212922        1.7732036235      -21.1247541586  W2        2512            0.0000000000
      7537      2513  TIP3      OH2            22.5458512922        1.9807936235      -23.1748841586  W2        2513            0.0000000000
      7538      2513  TIP3      H1             21.7688312922        1.7462836235      -23.6822941586  W2        2513            0.0000000000
      7539      2513  TIP3      H2             23.0762112922        1.1840036235      -23.1660841586  W2        2513            0.0000000000
      7540      2514  TIP3      OH2            21.3821912922        1.7786036235      -27.3712741586  W2        2514            0.0000000000
      7541      2514  TIP3      H1             21.8212612922        2.3896536235      -27.9629241586  W2        2514            0.0000000000
      7542      2514  TIP3      H2             20.7484312922        2.3170136235      -26.8972741586  W2        2514            0.0000000000
      7543      2515  TIP3      OH2            27.1251112922        1.9075036235      -23.3615741586  W2        2515            0.0000000000
      7544      2515  TIP3      H1             27.9994512922        2.2959336235      -23.3911441586  W2        2515            0.0000000000
      7545      2515  TIP3      H2             26.9891912922        1.6922836235      -22.4388541586  W2        2515            0.0000000000
      7546      2516  TIP3      OH2            32.6819512922        1.9374836235      -21.7124041586  W2        2516            0.0000000000
      7547      2516  TIP3      H1             32.7581112922        2.0326436235      -22.6618041586  W2        2516            0.0000000000
      7548      2516  TIP3      H2             32.4068712922        1.0297736235      -21.5834941586  W2        2516            0.0000000000
      7549      2517  TIP3      OH2            34.0352112922        1.9632636235      -26.0199041586  W2        2517            0.0000000000
      7550      2517  TIP3      H1             33.3323212922        2.5781836235      -26.2297641586  W2        2517            0.0000000000
      7551      2517  TIP3      H2             33.5903512922        1.1259336235      -25.8888141586  W2        2517            0.0000000000
      7552      2518  TIP3      OH2            21.2831412922       17.7268236235      -26.4737641586  W2        2518            0.0000000000
      7553      2518  TIP3      H1             20.5981312922       17.6887136235      -27.1412541586  W2        2518            0.0000000000
      7554      2518  TIP3      H2             21.2868612922       18.6395836235      -26.1855541586  W2        2518            0.0000000000
      7555      2519  TIP3      OH2            23.2431012922        3.6947536235      -28.9288641586  W2        2519            0.0000000000
      7556      2519  TIP3      H1             23.7344412922        3.0649936235      -29.4563141586  W2        2519            0.0000000000
      7557      2519  TIP3      H2             23.8667312922        3.9906936235      -28.2657441586  W2        2519            0.0000000000
      7558      2520  TIP3      OH2            28.2691112922        3.9879036235      -26.4718141586  W2        2520            0.0000000000
      7559      2520  TIP3      H1             28.4472412922        3.3412236235      -25.7889541586  W2        2520            0.0000000000
      7560      2520  TIP3      H2             28.2157312922        4.8216736235      -26.0047041586  W2        2520            0.0000000000
      7561      2521  TIP3      OH2            30.1474912922       18.9363136235      -28.0761441586  W2        2521            0.0000000000
      7562      2521  TIP3      H1             31.0135112922       19.3030536235      -28.2543241586  W2        2521            0.0000000000
      7563      2521  TIP3      H2             29.9007712922       18.4971136235      -28.8900641586  W2        2521            0.0000000000
      7564      2522  TIP3      OH2            22.5036512922        2.4949836235      -13.6572641586  W2        2522            0.0000000000
      7565      2522  TIP3      H1             22.1374712922        1.7292436235      -13.2147941586  W2        2522            0.0000000000
      7566      2522  TIP3      H2             23.4165012922        2.5240036235      -13.3707541586  W2        2522            0.0000000000
      7567      2523  TIP3      OH2            24.4767312922        1.8454236235      -12.1215541586  W2        2523            0.0000000000
      7568      2523  TIP3      H1             25.3750912922        1.5714436235      -12.3062141586  W2        2523            0.0000000000
      7569      2523  TIP3      H2             24.0900412922        1.1030236235      -11.6572941586  W2        2523            0.0000000000
      7570      2524  TIP3      OH2            23.1012612922       18.6469036235      -29.4485541586  W2        2524            0.0000000000
      7571      2524  TIP3      H1             22.8337212922       18.9331936235      -28.5752441586  W2        2524            0.0000000000
      7572      2524  TIP3      H2             23.8725212922       18.1008236235      -29.2963041586  W2        2524            0.0000000000
      7573      2525  TIP3      OH2            32.8979612922        1.1779536235      -11.9392741586  W2        2525            0.0000000000
      7574      2525  TIP3      H1             32.9746812922        0.7520236235      -11.0855041586  W2        2525            0.0000000000
      7575      2525  TIP3      H2             33.7916212922        1.1914236235      -12.2819241586  W2        2525            0.0000000000
      7576      2526  TIP3      OH2            36.0740712922       17.2505836235      -13.2468541586  W2        2526            0.0000000000
      7577      2526  TIP3      H1             35.2922612922       17.0643836235      -13.7667941586  W2        2526            0.0000000000
      7578      2526  TIP3      H2             36.0020612922       18.1800136235      -13.0296041586  W2        2526            0.0000000000
      7579      2527  TIP3      OH2           -24.9438887078       29.9930236235      -23.2161341586  W2        2527            0.0000000000
      7580      2527  TIP3      H1            -24.8547787078       30.9368436235      -23.3484241586  W2        2527            0.0000000000
      7581      2527  TIP3      H2            -25.5821287078       29.7176636235      -23.8741941586  W2        2527            0.0000000000
      7582      2528  TIP3      OH2           -26.0107587078       29.2480936235      -19.7973141586  W2        2528            0.0000000000
      7583      2528  TIP3      H1            -26.0490087078       28.6017236235      -19.0923541586  W2        2528            0.0000000000
      7584      2528  TIP3      H2            -26.3331087078       28.7815336235      -20.5684441586  W2        2528            0.0000000000
      7585      2529  TIP3      OH2           -33.6422587078       28.8623036235      -18.2043241586  W2        2529            0.0000000000
      7586      2529  TIP3      H1            -33.6010487078       28.2366336235      -17.4810841586  W2        2529            0.0000000000
      7587      2529  TIP3      H2            -32.9394887078       29.4861636235      -18.0222841586  W2        2529            0.0000000000
      7588      2530  TIP3      OH2           -22.3047387078       32.1871336235      -21.4958041586  W2        2530            0.0000000000
      7589      2530  TIP3      H1            -22.7454687078       31.4667336235      -21.0452441586  W2        2530            0.0000000000
      7590      2530  TIP3      H2            -22.3177687078       32.9078536235      -20.8660341586  W2        2530            0.0000000000
      7591      2531  TIP3      OH2           -32.7189487078       33.3121936235      -19.6694141586  W2        2531            0.0000000000
      7592      2531  TIP3      H1            -33.0884287078       32.5102436235      -20.0389841586  W2        2531            0.0000000000
      7593      2531  TIP3      H2            -31.7778387078       33.1436836235      -19.6230741586  W2        2531            0.0000000000
      7594      2532  TIP3      OH2           -36.1088987078       26.9724536235      -24.2765341586  W2        2532            0.0000000000
      7595      2532  TIP3      H1            -36.5565587078       27.8183236235      -24.2948841586  W2        2532            0.0000000000
      7596      2532  TIP3      H2            -36.6697787078       26.3928736235      -24.7920241586  W2        2532            0.0000000000
      7597      2533  TIP3      OH2           -35.3982887078       29.1344136235      -22.1507341586  W2        2533            0.0000000000
      7598      2533  TIP3      H1            -35.1849387078       28.3645736235      -21.6234341586  W2        2533            0.0000000000
      7599      2533  TIP3      H2            -34.6605287078       29.2240836235      -22.7539741586  W2        2533            0.0000000000
      7600      2534  TIP3      OH2           -27.6213187078       31.6802336235      -19.3912141586  W2        2534            0.0000000000
      7601      2534  TIP3      H1            -27.3175287078       30.9943736235      -19.9858041586  W2        2534            0.0000000000
      7602      2534  TIP3      H2            -26.8999187078       31.7991036235      -18.7734141586  W2        2534            0.0000000000
      7603      2535  TIP3      OH2           -18.9583387078       23.2817636235      -18.5305941586  W2        2535            0.0000000000
      7604      2535  TIP3      H1            -18.9091187078       23.8918836235      -17.7946841586  W2        2535            0.0000000000
      7605      2535  TIP3      H2            -18.5328287078       23.7428536235      -19.2534841586  W2        2535            0.0000000000
      7606      2536  TIP3      OH2           -24.4806187078       26.0744736235      -19.0637341586  W2        2536            0.0000000000
      7607      2536  TIP3      H1            -24.3380287078       25.1281736235      -19.0435741586  W2        2536            0.0000000000
      7608      2536  TIP3      H2            -24.5867187078       26.2814536235      -19.9922441586  W2        2536            0.0000000000
      7609      2537  TIP3      OH2           -31.3257887078       24.1761136235      -21.7912541586  W2        2537            0.0000000000
      7610      2537  TIP3      H1            -31.2826787078       25.0359636235      -22.2096241586  W2        2537            0.0000000000
      7611      2537  TIP3      H2            -31.7833787078       23.6235836235      -22.4249341586  W2        2537            0.0000000000
      7612      2538  TIP3      OH2           -23.6035187078       24.3066736235      -23.3904241586  W2        2538            0.0000000000
      7613      2538  TIP3      H1            -22.9570887078       23.9779936235      -22.7656641586  W2        2538            0.0000000000
      7614      2538  TIP3      H2            -23.0935787078       24.8245736235      -24.0132841586  W2        2538            0.0000000000
      7615      2539  TIP3      OH2           -34.7056387078       26.5726936235      -21.0291141586  W2        2539            0.0000000000
      7616      2539  TIP3      H1            -34.0519787078       26.0228636235      -20.5971041586  W2        2539            0.0000000000
      7617      2539  TIP3      H2            -34.6817087078       26.2985936235      -21.9459141586  W2        2539            0.0000000000
      7618      2540  TIP3      OH2           -29.5491887078       28.1228236235      -21.8139641586  W2        2540            0.0000000000
      7619      2540  TIP3      H1            -28.9330887078       27.5963636235      -21.3045641586  W2        2540            0.0000000000
      7620      2540  TIP3      H2            -30.1353087078       27.4826936235      -22.2176041586  W2        2540            0.0000000000
      7621      2541  TIP3      OH2           -18.5668787078       24.7596836235      -16.2946141586  W2        2541            0.0000000000
      7622      2541  TIP3      H1            -19.2554187078       25.4177536235      -16.3899541586  W2        2541            0.0000000000
      7623      2541  TIP3      H2            -18.5514187078       24.5624736235      -15.3580741586  W2        2541            0.0000000000
      7624      2542  TIP3      OH2           -32.5155987078       23.0939536235      -17.7171741586  W2        2542            0.0000000000
      7625      2542  TIP3      H1            -32.7344287078       23.6240136235      -18.4835741586  W2        2542            0.0000000000
      7626      2542  TIP3      H2            -33.1835087078       23.3205036235      -17.0700341586  W2        2542            0.0000000000
      7627      2543  TIP3      OH2           -25.1466187078       32.5940636235      -24.1732641586  W2        2543            0.0000000000
      7628      2543  TIP3      H1            -25.4421087078       32.2712936235      -25.0245741586  W2        2543            0.0000000000
      7629      2543  TIP3      H2            -25.4708387078       33.4937336235      -24.1320041586  W2        2543            0.0000000000
      7630      2544  TIP3      OH2           -29.9464587078       30.7695236235      -17.4298041586  W2        2544            0.0000000000
      7631      2544  TIP3      H1            -30.6865487078       31.3676736235      -17.3262841586  W2        2544            0.0000000000
      7632      2544  TIP3      H2            -29.2325087078       31.3234836235      -17.7454441586  W2        2544            0.0000000000
      7633      2545  TIP3      OH2           -21.8396787078       23.5976036235      -21.4098341586  W2        2545            0.0000000000
      7634      2545  TIP3      H1            -22.0548787078       22.8319436235      -20.8772341586  W2        2545            0.0000000000
      7635      2545  TIP3      H2            -21.1839387078       24.0700636235      -20.8969841586  W2        2545            0.0000000000
      7636      2546  TIP3      OH2           -32.9218687078       24.9861336235      -19.7649541586  W2        2546            0.0000000000
      7637      2546  TIP3      H1            -32.3082387078       25.6188936235      -19.3917141586  W2        2546            0.0000000000
      7638      2546  TIP3      H2            -32.4097987078       24.5136336235      -20.4212641586  W2        2546            0.0000000000
      7639      2547  TIP3      OH2           -31.5390287078       32.7338236235      -16.6426541586  W2        2547            0.0000000000
      7640      2547  TIP3      H1            -31.5442687078       33.6131736235      -17.0207241586  W2        2547            0.0000000000
      7641      2547  TIP3      H2            -32.3926187078       32.6502336235      -16.2176641586  W2        2547            0.0000000000
      7642      2548  TIP3      OH2           -35.4179387078       32.4046136235      -25.8607241586  W2        2548            0.0000000000
      7643      2548  TIP3      H1            -35.6898487078       32.6337136235      -26.7494341586  W2        2548            0.0000000000
      7644      2548  TIP3      H2            -35.3723687078       33.2424936235      -25.4001941586  W2        2548            0.0000000000
      7645      2549  TIP3      OH2           -21.7929687078       34.0262036235      -19.1478741586  W2        2549            0.0000000000
      7646      2549  TIP3      H1            -22.7345987078       34.0845936235      -18.9861841586  W2        2549            0.0000000000
      7647      2549  TIP3      H2            -21.5163587078       34.9322536235      -19.2849041586  W2        2549            0.0000000000
      7648      2550  TIP3      OH2           -21.4922687078       22.3127336235      -17.7304841586  W2        2550            0.0000000000
      7649      2550  TIP3      H1            -22.2283487078       22.9234436235      -17.7683541586  W2        2550            0.0000000000
      7650      2550  TIP3      H2            -20.8088687078       22.7276336235      -18.2568441586  W2        2550            0.0000000000
      7651      2551  TIP3      OH2           -28.4891287078       20.3994636235      -20.2646841586  W2        2551            0.0000000000
      7652      2551  TIP3      H1            -28.6067087078       19.4510636235      -20.3188541586  W2        2551            0.0000000000
      7653      2551  TIP3      H2            -29.3441187078       20.7320736235      -19.9915741586  W2        2551            0.0000000000
      7654      2552  TIP3      OH2           -23.5408487078       35.8075536235      -22.5227141586  W2        2552            0.0000000000
      7655      2552  TIP3      H1            -23.1156187078       35.1003436235      -23.0077541586  W2        2552            0.0000000000
      7656      2552  TIP3      H2            -23.2238487078       36.6088236235      -22.9394941586  W2        2552            0.0000000000
      7657      2553  TIP3      OH2           -22.3811987078       33.7084036235      -24.0140541586  W2        2553            0.0000000000
      7658      2553  TIP3      H1            -22.6387187078       33.0184136235      -24.6254641586  W2        2553            0.0000000000
      7659      2553  TIP3      H2            -22.3101187078       33.2655236235      -23.1684641586  W2        2553            0.0000000000
      7660      2554  TIP3      OH2           -20.6951787078       32.2750736235      -15.5367041586  W2        2554            0.0000000000
      7661      2554  TIP3      H1            -20.5555487078       31.6833236235      -16.2760041586  W2        2554            0.0000000000
      7662      2554  TIP3      H2            -20.5278987078       33.1476636235      -15.8928241586  W2        2554            0.0000000000
      7663      2555  TIP3      OH2           -26.2226387078       29.2370236235      -25.7641041586  W2        2555            0.0000000000
      7664      2555  TIP3      H1            -26.9340887078       29.7719936235      -26.1160541586  W2        2555            0.0000000000
      7665      2555  TIP3      H2            -25.5316787078       29.2922336235      -26.4242141586  W2        2555            0.0000000000
      7666      2556  TIP3      OH2           -26.1687187078       27.6944536235      -28.7256041586  W2        2556            0.0000000000
      7667      2556  TIP3      H1            -25.4677287078       27.7171436235      -28.0742041586  W2        2556            0.0000000000
      7668      2556  TIP3      H2            -25.8664287078       27.0664236235      -29.3816741586  W2        2556            0.0000000000
      7669      2557  TIP3      OH2           -18.8532487078       28.6148736235      -17.4706641586  W2        2557            0.0000000000
      7670      2557  TIP3      H1            -19.5058387078       29.3094336235      -17.3815741586  W2        2557            0.0000000000
      7671      2557  TIP3      H2            -18.3882187078       28.8249636235      -18.2805041586  W2        2557            0.0000000000
      7672      2558  TIP3      OH2           -22.8168687078       29.4463536235      -24.8125141586  W2        2558            0.0000000000
      7673      2558  TIP3      H1            -23.5487687078       29.6747236235      -24.2394541586  W2        2558            0.0000000000
      7674      2558  TIP3      H2            -22.3696487078       28.7326236235      -24.3577641586  W2        2558            0.0000000000
      7675      2559  TIP3      OH2           -22.9195187078       27.6206136235      -15.7448141586  W2        2559            0.0000000000
      7676      2559  TIP3      H1            -22.8396087078       28.3840536235      -15.1729641586  W2        2559            0.0000000000
      7677      2559  TIP3      H2            -23.5207487078       27.8998536235      -16.4353041586  W2        2559            0.0000000000
      7678      2560  TIP3      OH2           -31.1714987078       30.0769736235      -22.9300141586  W2        2560            0.0000000000
      7679      2560  TIP3      H1            -31.5019787078       29.7063136235      -23.7483141586  W2        2560            0.0000000000
      7680      2560  TIP3      H2            -30.5830887078       29.4063736235      -22.5831841586  W2        2560            0.0000000000
      7681      2561  TIP3      OH2           -29.8047487078       33.5050336235      -20.2487941586  W2        2561            0.0000000000
      7682      2561  TIP3      H1            -29.8996187078       32.9263436235      -21.0053341586  W2        2561            0.0000000000
      7683      2561  TIP3      H2            -29.0753887078       33.1336036235      -19.7525141586  W2        2561            0.0000000000
      7684      2562  TIP3      OH2           -30.8049487078       28.8455336235      -19.2965141586  W2        2562            0.0000000000
      7685      2562  TIP3      H1            -30.2396987078       28.9669536235      -20.0593941586  W2        2562            0.0000000000
      7686      2562  TIP3      H2            -30.4860587078       29.4830336235      -18.6576641586  W2        2562            0.0000000000
      7687      2563  TIP3      OH2           -24.4957287078       34.3487236235      -18.5624641586  W2        2563            0.0000000000
      7688      2563  TIP3      H1            -24.7360687078       35.0110336235      -17.9145441586  W2        2563            0.0000000000
      7689      2563  TIP3      H2            -24.6939087078       33.5142436235      -18.1375041586  W2        2563            0.0000000000
      7690      2564  TIP3      OH2           -29.9248787078       33.2448036235      -14.5793241586  W2        2564            0.0000000000
      7691      2564  TIP3      H1            -30.2361287078       34.0271236235      -14.1240041586  W2        2564            0.0000000000
      7692      2564  TIP3      H2            -30.5748587078       33.0917136235      -15.2651241586  W2        2564            0.0000000000
      7693      2565  TIP3      OH2           -23.9459187078       28.6086436235      -27.1273941586  W2        2565            0.0000000000
      7694      2565  TIP3      H1            -23.3663687078       28.7586736235      -26.3805041586  W2        2565            0.0000000000
      7695      2565  TIP3      H2            -23.5319187078       29.0793836235      -27.8507541586  W2        2565            0.0000000000
      7696      2566  TIP3      OH2           -33.0048887078       29.4429136235      -15.3507541586  W2        2566            0.0000000000
      7697      2566  TIP3      H1            -32.9345687078       30.0935936235      -14.6522541586  W2        2566            0.0000000000
      7698      2566  TIP3      H2            -33.8956687078       29.5456636235      -15.6856641586  W2        2566            0.0000000000
      7699      2567  TIP3      OH2           -26.2194287078       35.3454936235      -23.6920841586  W2        2567            0.0000000000
      7700      2567  TIP3      H1            -25.7456687078       35.6411236235      -22.9146641586  W2        2567            0.0000000000
      7701      2567  TIP3      H2            -26.7824987078       36.0836536235      -23.9251241586  W2        2567            0.0000000000
      7702      2568  TIP3      OH2           -31.6852887078       35.3163036235      -13.8159441586  W2        2568            0.0000000000
      7703      2568  TIP3      H1            -31.6777587078       35.1802736235      -14.7633941586  W2        2568            0.0000000000
      7704      2568  TIP3      H2            -32.6012487078       35.1991136235      -13.5639441586  W2        2568            0.0000000000
      7705      2569  TIP3      OH2           -20.2470787078       20.3586836235      -27.3144241586  W2        2569            0.0000000000
      7706      2569  TIP3      H1            -21.1470087078       20.4975836235      -27.0193641586  W2        2569            0.0000000000
      7707      2569  TIP3      H2            -19.9952387078       21.1901436235      -27.7162541586  W2        2569            0.0000000000
      7708      2570  TIP3      OH2           -32.1812287078       29.1464036235      -25.3407341586  W2        2570            0.0000000000
      7709      2570  TIP3      H1            -32.4730987078       29.9145736235      -25.8316041586  W2        2570            0.0000000000
      7710      2570  TIP3      H2            -32.8557087078       28.4870236235      -25.5035941586  W2        2570            0.0000000000
      7711      2571  TIP3      OH2           -19.0579387078       34.7249236235      -28.9380341586  W2        2571            0.0000000000
      7712      2571  TIP3      H1            -18.9845887078       35.6639436235      -28.7675041586  W2        2571            0.0000000000
      7713      2571  TIP3      H2            -18.1524287078       34.4197836235      -28.9943041586  W2        2571            0.0000000000
      7714      2572  TIP3      OH2           -36.0882187078       31.5093236235      -16.5257541586  W2        2572            0.0000000000
      7715      2572  TIP3      H1            -36.5893787078       31.4812636235      -17.3407841586  W2        2572            0.0000000000
      7716      2572  TIP3      H2            -36.0828487078       30.6036436235      -16.2160241586  W2        2572            0.0000000000
      7717      2573  TIP3      OH2           -36.3379487078       34.2897036235      -19.6417341586  W2        2573            0.0000000000
      7718      2573  TIP3      H1            -35.3918887078       34.1454036235      -19.6607841586  W2        2573            0.0000000000
      7719      2573  TIP3      H2            -36.4503187078       35.0739836235      -19.1046141586  W2        2573            0.0000000000
      7720      2574  TIP3      OH2           -18.1400987078       34.9556736235      -13.9593641586  W2        2574            0.0000000000
      7721      2574  TIP3      H1            -18.1894187078       34.0004836235      -13.9966041586  W2        2574            0.0000000000
      7722      2574  TIP3      H2            -18.9668687078       35.2232036235      -13.5579841586  W2        2574            0.0000000000
      7723      2575  TIP3      OH2           -27.1616987078       34.5295936235      -15.0832241586  W2        2575            0.0000000000
      7724      2575  TIP3      H1            -27.0742387078       35.3560536235      -14.6083141586  W2        2575            0.0000000000
      7725      2575  TIP3      H2            -28.0251887078       34.1999736235      -14.8342941586  W2        2575            0.0000000000
      7726      2576  TIP3      OH2           -20.9881187078       26.4489236235      -13.4791441586  W2        2576            0.0000000000
      7727      2576  TIP3      H1            -21.3954387078       26.9294836235      -14.1998141586  W2        2576            0.0000000000
      7728      2576  TIP3      H2            -20.9475487078       25.5435236235      -13.7870641586  W2        2576            0.0000000000
      7729      2577  TIP3      OH2           -33.8391687078       32.8328636235      -15.4824741586  W2        2577            0.0000000000
      7730      2577  TIP3      H1            -33.6230387078       32.4714236235      -14.6228941586  W2        2577            0.0000000000
      7731      2577  TIP3      H2            -34.6946987078       32.4582436235      -15.6921241586  W2        2577            0.0000000000
      7732      2578  TIP3      OH2           -31.2203687078       21.3029136235      -19.4870541586  W2        2578            0.0000000000
      7733      2578  TIP3      H1            -32.0819987078       21.2157336235      -19.8947641586  W2        2578            0.0000000000
      7734      2578  TIP3      H2            -31.2427987078       22.1589236235      -19.0592941586  W2        2578            0.0000000000
      7735      2579  TIP3      OH2           -26.5575887078       21.0249536235      -16.1123541586  W2        2579            0.0000000000
      7736      2579  TIP3      H1            -26.1372787078       20.6096636235      -15.3592941586  W2        2579            0.0000000000
      7737      2579  TIP3      H2            -27.4906287078       20.8462836235      -15.9951541586  W2        2579            0.0000000000
      7738      2580  TIP3      OH2           -23.2310987078       24.7804736235      -15.2589041586  W2        2580            0.0000000000
      7739      2580  TIP3      H1            -23.7451487078       24.6546936235      -14.4613041586  W2        2580            0.0000000000
      7740      2580  TIP3      H2            -23.3866287078       25.6927836235      -15.5032841586  W2        2580            0.0000000000
      7741      2581  TIP3      OH2           -22.4686087078       29.6414736235      -29.4976041586  W2        2581            0.0000000000
      7742      2581  TIP3      H1            -22.4265287078       29.4188636235      -30.4276041586  W2        2581            0.0000000000
      7743      2581  TIP3      H2            -21.6193987078       30.0401836235      -29.3076141586  W2        2581            0.0000000000
      7744      2582  TIP3      OH2           -26.8958587078       23.5172936235      -28.8272741586  W2        2582            0.0000000000
      7745      2582  TIP3      H1            -27.1493787078       23.5364536235      -27.9044641586  W2        2582            0.0000000000
      7746      2582  TIP3      H2            -27.1526487078       22.6458336235      -29.1286541586  W2        2582            0.0000000000
      7747      2583  TIP3      OH2           -31.1293587078       26.2683636235      -18.3920341586  W2        2583            0.0000000000
      7748      2583  TIP3      H1            -31.7711487078       26.2280936235      -17.6830241586  W2        2583            0.0000000000
      7749      2583  TIP3      H2            -31.0921587078       27.1948336235      -18.6297341586  W2        2583            0.0000000000
      7750      2584  TIP3      OH2           -31.1324487078       26.4893736235      -23.4800341586  W2        2584            0.0000000000
      7751      2584  TIP3      H1            -32.0251587078       26.1489836235      -23.5386541586  W2        2584            0.0000000000
      7752      2584  TIP3      H2            -30.6817887078       26.1124636235      -24.2357141586  W2        2584            0.0000000000
      7753      2585  TIP3      OH2           -25.5968987078       26.9054036235      -24.6629541586  W2        2585            0.0000000000
      7754      2585  TIP3      H1            -26.0058687078       27.7202636235      -24.9544741586  W2        2585            0.0000000000
      7755      2585  TIP3      H2            -24.8762787078       26.7654136235      -25.2772441586  W2        2585            0.0000000000
      7756      2586  TIP3      OH2           -26.4947387078       27.0810436235      -13.1748841586  W2        2586            0.0000000000
      7757      2586  TIP3      H1            -27.0573587078       26.3762036235      -12.8541041586  W2        2586            0.0000000000
      7758      2586  TIP3      H2            -25.6683987078       26.9602336235      -12.7071241586  W2        2586            0.0000000000
      7759      2587  TIP3      OH2           -24.5921287078       26.3514436235      -21.8489841586  W2        2587            0.0000000000
      7760      2587  TIP3      H1            -24.7876787078       26.9571236235      -22.5639241586  W2        2587            0.0000000000
      7761      2587  TIP3      H2            -24.4108687078       25.5179636235      -22.2833541586  W2        2587            0.0000000000
      7762      2588  TIP3      OH2           -33.3793087078       26.5887136235      -16.5248341586  W2        2588            0.0000000000
      7763      2588  TIP3      H1            -33.4173687078       26.9888736235      -15.6561241586  W2        2588            0.0000000000
      7764      2588  TIP3      H2            -33.8701987078       25.7719536235      -16.4345441586  W2        2588            0.0000000000
      7765      2589  TIP3      OH2           -30.0135687078       23.9629436235      -29.7262341586  W2        2589            0.0000000000
      7766      2589  TIP3      H1            -30.4444987078       23.5179536235      -28.9964941586  W2        2589            0.0000000000
      7767      2589  TIP3      H2            -30.7316987078       24.3345736235      -30.2384841586  W2        2589            0.0000000000
      7768      2590  TIP3      OH2           -36.7712287078       23.7048936235      -22.6743641586  W2        2590            0.0000000000
      7769      2590  TIP3      H1            -36.1404587078       23.6761036235      -21.9549741586  W2        2590            0.0000000000
      7770      2590  TIP3      H2            -36.3217987078       23.2797636235      -23.4047741586  W2        2590            0.0000000000
      7771      2591  TIP3      OH2           -35.4970187078       24.4510936235      -27.2503241586  W2        2591            0.0000000000
      7772      2591  TIP3      H1            -35.0228487078       25.0420836235      -27.8352341586  W2        2591            0.0000000000
      7773      2591  TIP3      H2            -36.2143787078       24.9813836235      -26.9033141586  W2        2591            0.0000000000
      7774      2592  TIP3      OH2           -25.3282087078       27.9895736235      -17.1777441586  W2        2592            0.0000000000
      7775      2592  TIP3      H1            -25.0047287078       27.3585436235      -17.8206941586  W2        2592            0.0000000000
      7776      2592  TIP3      H2            -25.7682787078       27.4547936235      -16.5170041586  W2        2592            0.0000000000
      7777      2593  TIP3      OH2           -28.5509187078       23.9171236235      -22.3936241586  W2        2593            0.0000000000
      7778      2593  TIP3      H1            -29.4618087078       23.9738036235      -22.1050241586  W2        2593            0.0000000000
      7779      2593  TIP3      H2            -28.0456287078       23.8566736235      -21.5829041586  W2        2593            0.0000000000
      7780      2594  TIP3      OH2           -33.7225787078       25.5457536235      -23.5668641586  W2        2594            0.0000000000
      7781      2594  TIP3      H1            -34.6117787078       25.6453036235      -23.9069041586  W2        2594            0.0000000000
      7782      2594  TIP3      H2            -33.4260887078       24.7040536235      -23.9130741586  W2        2594            0.0000000000
      7783      2595  TIP3      OH2           -30.0693987078       25.5460136235      -25.9104041586  W2        2595            0.0000000000
      7784      2595  TIP3      H1            -29.1378487078       25.6750136235      -25.7320941586  W2        2595            0.0000000000
      7785      2595  TIP3      H2            -30.2843687078       26.2154436235      -26.5599341586  W2        2595            0.0000000000
      7786      2596  TIP3      OH2           -24.1457287078       23.1517536235      -19.1294441586  W2        2596            0.0000000000
      7787      2596  TIP3      H1            -24.8225687078       23.2830636235      -18.4654741586  W2        2596            0.0000000000
      7788      2596  TIP3      H2            -24.6312387078       22.9967036235      -19.9396741586  W2        2596            0.0000000000
      7789      2597  TIP3      OH2           -31.3953787078       26.7402336235      -28.3437941586  W2        2597            0.0000000000
      7790      2597  TIP3      H1            -31.9378687078       26.3606136235      -29.0350341586  W2        2597            0.0000000000
      7791      2597  TIP3      H2            -30.5618887078       26.9347036235      -28.7723841586  W2        2597            0.0000000000
      7792      2598  TIP3      OH2           -33.2602387078       31.2974236235      -13.2446341586  W2        2598            0.0000000000
      7793      2598  TIP3      H1            -32.5279987078       31.5520136235      -12.6831841586  W2        2598            0.0000000000
      7794      2598  TIP3      H2            -34.0403687078       31.5019636235      -12.7290941586  W2        2598            0.0000000000
      7795      2599  TIP3      OH2           -27.2309487078       26.7044236235      -20.5066641586  W2        2599            0.0000000000
      7796      2599  TIP3      H1            -26.6666087078       26.1580836235      -21.0537041586  W2        2599            0.0000000000
      7797      2599  TIP3      H2            -27.3786087078       26.1826136235      -19.7179041586  W2        2599            0.0000000000
      7798      2600  TIP3      OH2           -32.2289787078       22.8410336235      -24.0881841586  W2        2600            0.0000000000
      7799      2600  TIP3      H1            -32.5460287078       21.9385636235      -24.1236441586  W2        2600            0.0000000000
      7800      2600  TIP3      H2            -31.4475687078       22.8427736235      -24.6410241586  W2        2600            0.0000000000
      7801      2601  TIP3      OH2           -28.6043587078       25.0930336235      -18.0926241586  W2        2601            0.0000000000
      7802      2601  TIP3      H1            -29.4398287078       25.5469836235      -17.9823841586  W2        2601            0.0000000000
      7803      2601  TIP3      H2            -28.0802987078       25.3688836235      -17.3406341586  W2        2601            0.0000000000
      7804      2602  TIP3      OH2           -28.0600987078       31.3058036235      -26.4079841586  W2        2602            0.0000000000
      7805      2602  TIP3      H1            -28.8049987078       30.7983336235      -26.7301941586  W2        2602            0.0000000000
      7806      2602  TIP3      H2            -28.1943787078       31.3546036235      -25.4615041586  W2        2602            0.0000000000
      7807      2603  TIP3      OH2           -20.9102087078       30.4386236235      -17.6212241586  W2        2603            0.0000000000
      7808      2603  TIP3      H1            -20.2683287078       30.8952536235      -18.1650041586  W2        2603            0.0000000000
      7809      2603  TIP3      H2            -21.7405187078       30.5518636235      -18.0838141586  W2        2603            0.0000000000
      7810      2604  TIP3      OH2           -24.1624187078       24.1197936235      -28.2087241586  W2        2604            0.0000000000
      7811      2604  TIP3      H1            -25.1009987078       24.2313536235      -28.3598441586  W2        2604            0.0000000000
      7812      2604  TIP3      H2            -23.8652087078       24.9764836235      -27.9021541586  W2        2604            0.0000000000
      7813      2605  TIP3      OH2           -26.5408887078       31.4901336235      -15.1710741586  W2        2605            0.0000000000
      7814      2605  TIP3      H1            -26.8862787078       31.1083736235      -14.3641141586  W2        2605            0.0000000000
      7815      2605  TIP3      H2            -26.7408787078       32.4234936235      -15.0997841586  W2        2605            0.0000000000
      7816      2606  TIP3      OH2           -23.4440687078       25.9870636235      -26.5479841586  W2        2606            0.0000000000
      7817      2606  TIP3      H1            -22.5521687078       25.8495636235      -26.2288641586  W2        2606            0.0000000000
      7818      2606  TIP3      H2            -23.3877087078       26.7776736235      -27.0846341586  W2        2606            0.0000000000
      7819      2607  TIP3      OH2           -32.9352687078       30.6008036235      -20.6381941586  W2        2607            0.0000000000
      7820      2607  TIP3      H1            -32.1905487078       30.5983736235      -21.2395441586  W2        2607            0.0000000000
      7821      2607  TIP3      H2            -32.8576087078       29.7771836235      -20.1566841586  W2        2607            0.0000000000
      7822      2608  TIP3      OH2           -25.9346887078       32.7642336235      -27.3825241586  W2        2608            0.0000000000
      7823      2608  TIP3      H1            -26.2298487078       33.5910236235      -27.0010441586  W2        2608            0.0000000000
      7824      2608  TIP3      H2            -26.6376887078       32.1449236235      -27.1863841586  W2        2608            0.0000000000
      7825      2609  TIP3      OH2           -35.9272987078       29.0614936235      -15.3233441586  W2        2609            0.0000000000
      7826      2609  TIP3      H1            -35.7044387078       28.6434536235      -14.4915941586  W2        2609            0.0000000000
      7827      2609  TIP3      H2            -36.5292887078       28.4489936235      -15.7460641586  W2        2609            0.0000000000
      7828      2610  TIP3      OH2           -28.9108087078       28.5784836235      -13.1103741586  W2        2610            0.0000000000
      7829      2610  TIP3      H1            -29.2067287078       28.4127836235      -14.0054641586  W2        2610            0.0000000000
      7830      2610  TIP3      H2            -27.9792887078       28.3585136235      -13.1209841586  W2        2610            0.0000000000
      7831      2611  TIP3      OH2           -24.2905287078       33.9516836235      -15.2205741586  W2        2611            0.0000000000
      7832      2611  TIP3      H1            -25.1910987078       34.1349436235      -15.4881841586  W2        2611            0.0000000000
      7833      2611  TIP3      H2            -24.2564187078       34.2106136235      -14.2996941586  W2        2611            0.0000000000
      7834      2612  TIP3      OH2           -18.5591987078       26.1964736235      -26.8533141586  W2        2612            0.0000000000
      7835      2612  TIP3      H1            -19.1135687078       25.8002736235      -27.5255641586  W2        2612            0.0000000000
      7836      2612  TIP3      H2            -18.4588387078       27.1069936235      -27.1309841586  W2        2612            0.0000000000
      7837      2613  TIP3      OH2           -18.5959987078       31.9966436235      -14.0161641586  W2        2613            0.0000000000
      7838      2613  TIP3      H1            -19.4471487078       32.2350236235      -14.3835241586  W2        2613            0.0000000000
      7839      2613  TIP3      H2            -18.0056587078       31.9799636235      -14.7694541586  W2        2613            0.0000000000
      7840      2614  TIP3      OH2           -20.2640287078       34.9825136235      -26.3881041586  W2        2614            0.0000000000
      7841      2614  TIP3      H1            -20.6369187078       34.1568936235      -26.0790441586  W2        2614            0.0000000000
      7842      2614  TIP3      H2            -19.9866787078       34.7994536235      -27.2857641586  W2        2614            0.0000000000
      7843      2615  TIP3      OH2           -23.1036387078       29.7904636235      -19.3669141586  W2        2615            0.0000000000
      7844      2615  TIP3      H1            -24.0319487078       29.5586536235      -19.3939841586  W2        2615            0.0000000000
      7845      2615  TIP3      H2            -22.6525287078       29.0134436235      -19.6970341586  W2        2615            0.0000000000
      7846      2616  TIP3      OH2           -30.5603287078       34.1186236235      -23.2340441586  W2        2616            0.0000000000
      7847      2616  TIP3      H1            -30.0331087078       34.8920636235      -23.4341641586  W2        2616            0.0000000000
      7848      2616  TIP3      H2            -31.4404787078       34.3435436235      -23.5356441586  W2        2616            0.0000000000
      7849      2617  TIP3      OH2           -34.8055587078       28.9810336235      -28.6468041586  W2        2617            0.0000000000
      7850      2617  TIP3      H1            -34.1895687078       29.6077536235      -28.2673241586  W2        2617            0.0000000000
      7851      2617  TIP3      H2            -35.6672987078       29.2970136235      -28.3751541586  W2        2617            0.0000000000
      7852      2618  TIP3      OH2           -29.1330987078       31.7816136235      -23.6576141586  W2        2618            0.0000000000
      7853      2618  TIP3      H1            -29.3740987078       32.7070536235      -23.6160841586  W2        2618            0.0000000000
      7854      2618  TIP3      H2            -29.8737387078       31.3227436235      -23.2612241586  W2        2618            0.0000000000
      7855      2619  TIP3      OH2           -28.6184387078       35.9309736235      -17.3425041586  W2        2619            0.0000000000
      7856      2619  TIP3      H1            -28.2559687078       36.7855336235      -17.5760641586  W2        2619            0.0000000000
      7857      2619  TIP3      H2            -28.0869187078       35.6391336235      -16.6018741586  W2        2619            0.0000000000
      7858      2620  TIP3      OH2           -30.4500187078       36.8033736235      -24.1123941586  W2        2620            0.0000000000
      7859      2620  TIP3      H1            -31.3999687078       36.9091136235      -24.0610641586  W2        2620            0.0000000000
      7860      2620  TIP3      H2            -30.0982087078       37.6241136235      -23.7676441586  W2        2620            0.0000000000
      7861      2621  TIP3      OH2           -25.0743587078       32.0300436235      -17.6419441586  W2        2621            0.0000000000
      7862      2621  TIP3      H1            -25.5002287078       31.8022136235      -16.8155441586  W2        2621            0.0000000000
      7863      2621  TIP3      H2            -24.4937787078       31.2912236235      -17.8244141586  W2        2621            0.0000000000
      7864      2622  TIP3      OH2           -22.8714687078       32.9590936235      -28.5680441586  W2        2622            0.0000000000
      7865      2622  TIP3      H1            -22.5181587078       32.5790736235      -27.7636941586  W2        2622            0.0000000000
      7866      2622  TIP3      H2            -23.8201187078       32.8655736235      -28.4811141586  W2        2622            0.0000000000
      7867      2623  TIP3      OH2           -22.4159387078       36.5819936235      -15.1724641586  W2        2623            0.0000000000
      7868      2623  TIP3      H1            -23.0176187078       36.0262836235      -15.6678341586  W2        2623            0.0000000000
      7869      2623  TIP3      H2            -22.1345687078       37.2489736235      -15.7987241586  W2        2623            0.0000000000
      7870      2624  TIP3      OH2           -34.2933487078       23.8147636235      -15.7652041586  W2        2624            0.0000000000
      7871      2624  TIP3      H1            -35.1861187078       24.1533036235      -15.8328041586  W2        2624            0.0000000000
      7872      2624  TIP3      H2            -34.3920687078       22.9593736235      -15.3471241586  W2        2624            0.0000000000
      7873      2625  TIP3      OH2           -22.0055387078       31.6312936235      -26.3412541586  W2        2625            0.0000000000
      7874      2625  TIP3      H1            -22.2827787078       30.9032236235      -25.7851441586  W2        2625            0.0000000000
      7875      2625  TIP3      H2            -21.0782387078       31.7504936235      -26.1359941586  W2        2625            0.0000000000
      7876      2626  TIP3      OH2           -34.6421487078       35.6192036235      -17.3302641586  W2        2626            0.0000000000
      7877      2626  TIP3      H1            -34.4251187078       34.6874436235      -17.3612941586  W2        2626            0.0000000000
      7878      2626  TIP3      H2            -34.3957987078       35.8937036235      -16.4469841586  W2        2626            0.0000000000
      7879      2627  TIP3      OH2           -28.7806887078       34.0707036235      -30.1210441586  W2        2627            0.0000000000
      7880      2627  TIP3      H1            -28.5417087078       33.3225136235      -30.6681541586  W2        2627            0.0000000000
      7881      2627  TIP3      H2            -29.0495587078       33.6828736235      -29.2882641586  W2        2627            0.0000000000
      7882      2628  TIP3      OH2           -29.8436287078       33.6410836235      -27.6647841586  W2        2628            0.0000000000
      7883      2628  TIP3      H1            -29.6968287078       33.1210636235      -26.8746941586  W2        2628            0.0000000000
      7884      2628  TIP3      H2            -29.8464587078       34.5478436235      -27.3581941586  W2        2628            0.0000000000
      7885      2629  TIP3      OH2           -33.3905187078       30.8934136235      -27.1542441586  W2        2629            0.0000000000
      7886      2629  TIP3      H1            -34.0765887078       31.2456636235      -26.5872741586  W2        2629            0.0000000000
      7887      2629  TIP3      H2            -32.8677287078       31.6563736235      -27.4008141586  W2        2629            0.0000000000
      7888      2630  TIP3      OH2           -25.5590087078       23.5557936235      -16.8753441586  W2        2630            0.0000000000
      7889      2630  TIP3      H1            -24.8602187078       23.6296636235      -16.2253741586  W2        2630            0.0000000000
      7890      2630  TIP3      H2            -25.9398687078       22.6912936235      -16.7210541586  W2        2630            0.0000000000
      7891      2631  TIP3      OH2           -24.7745187078       23.2079636235      -25.7781141586  W2        2631            0.0000000000
      7892      2631  TIP3      H1            -24.5546887078       23.6795036235      -26.5815741586  W2        2631            0.0000000000
      7893      2631  TIP3      H2            -24.2161187078       23.6022236235      -25.1080541586  W2        2631            0.0000000000
      7894      2632  TIP3      OH2           -27.1059087078       35.3384436235      -26.9153641586  W2        2632            0.0000000000
      7895      2632  TIP3      H1            -27.9222987078       35.8354136235      -26.8629341586  W2        2632            0.0000000000
      7896      2632  TIP3      H2            -26.5762787078       35.8137936235      -27.5554841586  W2        2632            0.0000000000
      7897      2633  TIP3      OH2           -27.5745287078       24.9358436235      -24.9432741586  W2        2633            0.0000000000
      7898      2633  TIP3      H1            -26.7622687078       25.4401636235      -24.8971041586  W2        2633            0.0000000000
      7899      2633  TIP3      H2            -27.8192287078       24.7908136235      -24.0293141586  W2        2633            0.0000000000
      7900      2634  TIP3      OH2           -27.0388887078       25.9221136235      -15.7586141586  W2        2634            0.0000000000
      7901      2634  TIP3      H1            -26.9198587078       26.4956536235      -15.0015741586  W2        2634            0.0000000000
      7902      2634  TIP3      H2            -26.3834287078       25.2340536235      -15.6438341586  W2        2634            0.0000000000
      7903      2635  TIP3      OH2           -26.6908587078       22.0171436235      -24.0051641586  W2        2635            0.0000000000
      7904      2635  TIP3      H1            -27.0375087078       22.6342036235      -23.3607341586  W2        2635            0.0000000000
      7905      2635  TIP3      H2            -26.0321687078       22.5177136235      -24.4866141586  W2        2635            0.0000000000
      7906      2636  TIP3      OH2           -29.7675987078       36.3821636235      -26.9336741586  W2        2636            0.0000000000
      7907      2636  TIP3      H1            -29.6067287078       37.1819136235      -27.4344141586  W2        2636            0.0000000000
      7908      2636  TIP3      H2            -29.9648187078       36.6887636235      -26.0486141586  W2        2636            0.0000000000
      7909      2637  TIP3      OH2           -31.0331587078       23.0800836235      -27.3179141586  W2        2637            0.0000000000
      7910      2637  TIP3      H1            -31.1166787078       23.9683936235      -26.9712741586  W2        2637            0.0000000000
      7911      2637  TIP3      H2            -30.1431287078       22.8147536235      -27.0862341586  W2        2637            0.0000000000
      7912      2638  TIP3      OH2           -20.8343087078       23.8291436235      -14.9236441586  W2        2638            0.0000000000
      7913      2638  TIP3      H1            -21.7507287078       24.0913136235      -15.0112741586  W2        2638            0.0000000000
      7914      2638  TIP3      H2            -20.4988087078       23.8260436235      -15.8201141586  W2        2638            0.0000000000
      7915      2639  TIP3      OH2           -22.2322087078       27.5792436235      -20.8279141586  W2        2639            0.0000000000
      7916      2639  TIP3      H1            -23.0297687078       27.1642636235      -21.1564141586  W2        2639            0.0000000000
      7917      2639  TIP3      H2            -21.7870987078       26.8886136235      -20.3368641586  W2        2639            0.0000000000
      7918      2640  TIP3      OH2           -32.7746287078       33.5073036235      -28.2574641586  W2        2640            0.0000000000
      7919      2640  TIP3      H1            -32.1824787078       34.2067836235      -27.9812241586  W2        2640            0.0000000000
      7920      2640  TIP3      H2            -32.3153287078       33.0742536235      -28.9770041586  W2        2640            0.0000000000
      7921      2641  TIP3      OH2           -34.4587087078       26.1716036235      -29.1415241586  W2        2641            0.0000000000
      7922      2641  TIP3      H1            -34.5034487078       27.1109136235      -28.9628241586  W2        2641            0.0000000000
      7923      2641  TIP3      H2            -35.3463887078       25.9360936235      -29.4113141586  W2        2641            0.0000000000
      7924      2642  TIP3      OH2           -33.6505087078       20.9532636235      -20.4684241586  W2        2642            0.0000000000
      7925      2642  TIP3      H1            -33.8795287078       21.0125136235      -21.3959241586  W2        2642            0.0000000000
      7926      2642  TIP3      H2            -34.0931687078       20.1618136235      -20.1620141586  W2        2642            0.0000000000
      7927      2643  TIP3      OH2           -34.7201787078       34.8939736235      -24.3078441586  W2        2643            0.0000000000
      7928      2643  TIP3      H1            -35.5523187078       35.3662436235      -24.2807041586  W2        2643            0.0000000000
      7929      2643  TIP3      H2            -34.1743487078       35.4037336235      -24.9065341586  W2        2643            0.0000000000
      7930      2644  TIP3      OH2           -30.8344687078       36.4257836235      -11.3576241586  W2        2644            0.0000000000
      7931      2644  TIP3      H1            -30.0667487078       35.9668636235      -11.0167041586  W2        2644            0.0000000000
      7932      2644  TIP3      H2            -30.8558487078       36.1997636235      -12.2875041586  W2        2644            0.0000000000
      7933      2645  TIP3      OH2           -26.7425087078       35.9338436235      -29.9824441586  W2        2645            0.0000000000
      7934      2645  TIP3      H1            -27.3864087078       35.3027036235      -29.6610741586  W2        2645            0.0000000000
      7935      2645  TIP3      H2            -25.9806787078       35.4026436235      -30.2140941586  W2        2645            0.0000000000
      7936      2646  TIP3      OH2           -24.2575987078       34.8058936235      -12.6284741586  W2        2646            0.0000000000
      7937      2646  TIP3      H1            -24.6086487078       33.9491936235      -12.3854341586  W2        2646            0.0000000000
      7938      2646  TIP3      H2            -23.5312787078       34.9485636235      -12.0215741586  W2        2646            0.0000000000
      7939      2647  TIP3      OH2           -22.1382187078       35.7508336235      -29.7486441586  W2        2647            0.0000000000
      7940      2647  TIP3      H1            -21.8551787078       34.9563536235      -29.2959541586  W2        2647            0.0000000000
      7941      2647  TIP3      H2            -21.3984287078       35.9839336235      -30.3095341586  W2        2647            0.0000000000
      7942      2648  TIP3      OH2           -35.5248587078       31.3167536235      -12.0236141586  W2        2648            0.0000000000
      7943      2648  TIP3      H1            -35.3808087078       30.4148236235      -12.3099441586  W2        2648            0.0000000000
      7944      2648  TIP3      H2            -36.2971187078       31.6029636235      -12.5113841586  W2        2648            0.0000000000
      7945      2649  TIP3      OH2           -31.1834887078       31.6603236235      -29.8911541586  W2        2649            0.0000000000
      7946      2649  TIP3      H1            -31.1190787078       30.8662836235      -29.3605141586  W2        2649            0.0000000000
      7947      2649  TIP3      H2            -30.5305687078       31.5416036235      -30.5809541586  W2        2649            0.0000000000
      7948      2650  TIP3      OH2           -28.8692487078       31.2865636235      -12.5909741586  W2        2650            0.0000000000
      7949      2650  TIP3      H1            -29.1978687078       31.5573736235      -13.4482341586  W2        2650            0.0000000000
      7950      2650  TIP3      H2            -28.7174287078       30.3455436235      -12.6784741586  W2        2650            0.0000000000
      7951      2651  TIP3      OH2           -25.8311487078       32.7074936235      -30.1553541586  W2        2651            0.0000000000
      7952      2651  TIP3      H1            -26.0997387078       32.8877036235      -29.2544641586  W2        2651            0.0000000000
      7953      2651  TIP3      H2            -26.0375887078       31.7821136235      -30.2867741586  W2        2651            0.0000000000
      7954      2652  TIP3      OH2           -23.1347287078       31.2022936235      -15.2077441586  W2        2652            0.0000000000
      7955      2652  TIP3      H1            -22.3892487078       31.7906636235      -15.3273441586  W2        2652            0.0000000000
      7956      2652  TIP3      H2            -23.8920487078       31.7842636235      -15.1444341586  W2        2652            0.0000000000
      7957      2653  TIP3      OH2           -34.6922087078       28.5170836235      -12.6036841586  W2        2653            0.0000000000
      7958      2653  TIP3      H1            -34.2840887078       27.6597436235      -12.7246241586  W2        2653            0.0000000000
      7959      2653  TIP3      H2            -34.9524487078       28.5312136235      -11.6826541586  W2        2653            0.0000000000
      7960      2654  TIP3      OH2           -30.0341087078       29.6329436235      -27.5853541586  W2        2654            0.0000000000
      7961      2654  TIP3      H1            -30.4939087078       29.1487736235      -26.8995041586  W2        2654            0.0000000000
      7962      2654  TIP3      H2            -29.7792387078       28.9644836235      -28.2213041586  W2        2654            0.0000000000
      7963      2655  TIP3      OH2           -30.7451787078       27.5256536235      -15.2293941586  W2        2655            0.0000000000
      7964      2655  TIP3      H1            -31.3635687078       28.2003136235      -14.9489241586  W2        2655            0.0000000000
      7965      2655  TIP3      H2            -30.4010587078       27.8470436235      -16.0627741586  W2        2655            0.0000000000
      7966      2656  TIP3      OH2           -28.9630687078       27.8761236235      -29.3230341586  W2        2656            0.0000000000
      7967      2656  TIP3      H1            -29.1435687078       27.7212436235      -30.2502041586  W2        2656            0.0000000000
      7968      2656  TIP3      H2            -28.0130187078       27.9839936235      -29.2782441586  W2        2656            0.0000000000
      7969      2657  TIP3      OH2           -25.7253587078       29.9971836235      -11.9519141586  W2        2657            0.0000000000
      7970      2657  TIP3      H1            -24.7722387078       30.0810936235      -11.9793141586  W2        2657            0.0000000000
      7971      2657  TIP3      H2            -25.8858987078       29.2853636235      -11.3324241586  W2        2657            0.0000000000
      7972      2658  TIP3      OH2           -19.5732387078       30.2305436235      -29.8772241586  W2        2658            0.0000000000
      7973      2658  TIP3      H1            -19.8467587078       29.8060936235      -30.6903941586  W2        2658            0.0000000000
      7974      2658  TIP3      H2            -19.5338287078       31.1619936235      -30.0941841586  W2        2658            0.0000000000
      7975      2659  TIP3      OH2           -30.4058087078       24.8807336235      -14.1470841586  W2        2659            0.0000000000
      7976      2659  TIP3      H1            -30.2557187078       24.1518636235      -14.7491141586  W2        2659            0.0000000000
      7977      2659  TIP3      H2            -30.4035687078       25.6579036235      -14.7058641586  W2        2659            0.0000000000
      7978      2660  TIP3      OH2           -29.9932387078       23.2503136235      -16.6543441586  W2        2660            0.0000000000
      7979      2660  TIP3      H1            -29.4574887078       23.7019836235      -17.3064141586  W2        2660            0.0000000000
      7980      2660  TIP3      H2            -30.8452787078       23.1422936235      -17.0769341586  W2        2660            0.0000000000
      7981      2661  TIP3      OH2           -28.4113987078       28.6899336235      -16.4148241586  W2        2661            0.0000000000
      7982      2661  TIP3      H1            -27.6609187078       28.5336836235      -16.9880441586  W2        2661            0.0000000000
      7983      2661  TIP3      H2            -28.7505687078       29.5415936235      -16.6902741586  W2        2661            0.0000000000
      7984      2662  TIP3      OH2           -23.9957787078       26.5051136235      -11.3862941586  W2        2662            0.0000000000
      7985      2662  TIP3      H1            -23.8036487078       25.5740536235      -11.4978441586  W2        2662            0.0000000000
      7986      2662  TIP3      H2            -23.1381487078       26.9300636235      -11.3967541586  W2        2662            0.0000000000
      7987      2663  TIP3      OH2           -22.6790587078       29.2936336235      -13.3090241586  W2        2663            0.0000000000
      7988      2663  TIP3      H1            -22.9605587078       30.0030936235      -13.8866441586  W2        2663            0.0000000000
      7989      2663  TIP3      H2            -21.7366287078       29.2209336235      -13.4599041586  W2        2663            0.0000000000
      7990      2664  TIP3      OH2           -31.9271787078       26.0790836235      -12.2355241586  W2        2664            0.0000000000
      7991      2664  TIP3      H1            -32.6942787078       25.5465636235      -12.4457641586  W2        2664            0.0000000000
      7992      2664  TIP3      H2            -31.2482787078       25.7691236235      -12.8348941586  W2        2664            0.0000000000
      7993      2665  TIP3      OH2           -29.1876887078       20.7068836235      -16.2229841586  W2        2665            0.0000000000
      7994      2665  TIP3      H1            -29.2857287078       21.6532036235      -16.3283641586  W2        2665            0.0000000000
      7995      2665  TIP3      H2            -29.9300687078       20.3342636235      -16.6986341586  W2        2665            0.0000000000
      7996      2666  TIP3      OH2           -27.9236387078       25.0284236235      -12.6591441586  W2        2666            0.0000000000
      7997      2666  TIP3      H1            -28.1590987078       24.8090936235      -11.7576541586  W2        2666            0.0000000000
      7998      2666  TIP3      H2            -28.7069487078       24.8215436235      -13.1688941586  W2        2666            0.0000000000
      7999      2667  TIP3      OH2           -25.2079787078       24.1557736235      -13.5837941586  W2        2667            0.0000000000
      8000      2667  TIP3      H1            -26.1554387078       24.1877436235      -13.4514641586  W2        2667            0.0000000000
      8001      2667  TIP3      H2            -24.8953087078       23.5304836235      -12.9299741586  W2        2667            0.0000000000
      8002      2668  TIP3      OH2           -23.5738287078       22.7898836235      -11.5786041586  W2        2668            0.0000000000
      8003      2668  TIP3      H1            -23.6706487078       21.8376136235      -11.5844141586  W2        2668            0.0000000000
      8004      2668  TIP3      H2            -23.8955187078       23.0585636235      -10.7180541586  W2        2668            0.0000000000
      8005      2669  TIP3      OH2           -33.7468987078       23.9994636235      -12.5310541586  W2        2669            0.0000000000
      8006      2669  TIP3      H1            -33.5351587078       23.2930736235      -13.1413041586  W2        2669            0.0000000000
      8007      2669  TIP3      H2            -33.8581487078       23.5620636235      -11.6869341586  W2        2669            0.0000000000
      8008      2670  TIP3      OH2           -28.9658787078       20.0006236235      -13.5517041586  W2        2670            0.0000000000
      8009      2670  TIP3      H1            -28.2540387078       19.3608436235      -13.5657941586  W2        2670            0.0000000000
      8010      2670  TIP3      H2            -29.0668387078       20.2674536235      -14.4653941586  W2        2670            0.0000000000
      8011      2671  TIP3      OH2           -28.6121287078       21.6834636235      -11.4980741586  W2        2671            0.0000000000
      8012      2671  TIP3      H1            -28.7439087078       21.2078436235      -12.3182241586  W2        2671            0.0000000000
      8013      2671  TIP3      H2            -29.2113887078       22.4278236235      -11.5533641586  W2        2671            0.0000000000
      8014      2672  TIP3      OH2           -35.4974087078       33.2028736235      -28.8388641586  W2        2672            0.0000000000
      8015      2672  TIP3      H1            -34.5834887078       33.2817636235      -28.5654741586  W2        2672            0.0000000000
      8016      2672  TIP3      H2            -35.4900987078       32.5158336235      -29.5053041586  W2        2672            0.0000000000
      8017      2673  TIP3      OH2           -35.9784287078       36.6764236235      -21.9568541586  W2        2673            0.0000000000
      8018      2673  TIP3      H1            -36.3127487078       35.7961536235      -21.7848341586  W2        2673            0.0000000000
      8019      2673  TIP3      H2            -35.7561887078       37.0219236235      -21.0922941586  W2        2673            0.0000000000
      8020      2674  TIP3      OH2           -20.4159287078       32.8429836235      -11.4164341586  W2        2674            0.0000000000
      8021      2674  TIP3      H1            -21.2818187078       32.7379536235      -11.0222041586  W2        2674            0.0000000000
      8022      2674  TIP3      H2            -20.0393387078       33.6013136235      -10.9699641586  W2        2674            0.0000000000
      8023      2675  TIP3      OH2           -19.1149587078       31.0993536235      -25.9021841586  W2        2675            0.0000000000
      8024      2675  TIP3      H1            -18.2648187078       31.5204436235      -25.7750241586  W2        2675            0.0000000000
      8025      2675  TIP3      H2            -19.1094487078       30.3593636235      -25.2950441586  W2        2675            0.0000000000
      8026      2676  TIP3      OH2           -18.7203987078       29.1530936235      -24.0786141586  W2        2676            0.0000000000
      8027      2676  TIP3      H1            -19.4469387078       28.6733536235      -23.6808541586  W2        2676            0.0000000000
      8028      2676  TIP3      H2            -18.1390687078       29.3585636235      -23.3464541586  W2        2676            0.0000000000
      8029      2677  TIP3      OH2           -18.9612787078       31.9378436235      -19.1308541586  W2        2677            0.0000000000
      8030      2677  TIP3      H1            -18.1278587078       31.5598436235      -19.4114941586  W2        2677            0.0000000000
      8031      2677  TIP3      H2            -18.8492487078       32.8809636235      -19.2499441586  W2        2677            0.0000000000
      8032      2678  TIP3      OH2           -20.4750487078       34.8155936235      -16.8240141586  W2        2678            0.0000000000
      8033      2678  TIP3      H1            -21.1225187078       35.1407436235      -16.1984941586  W2        2678            0.0000000000
      8034      2678  TIP3      H2            -20.9926487078       34.3753636235      -17.4981841586  W2        2678            0.0000000000
      8035      2679  TIP3      OH2           -18.4520887078       29.0539436235      -27.6874841586  W2        2679            0.0000000000
      8036      2679  TIP3      H1            -18.9739787078       29.4103536235      -28.4063941586  W2        2679            0.0000000000
      8037      2679  TIP3      H2            -18.4851687078       29.7287236235      -27.0093941586  W2        2679            0.0000000000
      8038      2680  TIP3      OH2           -20.1031887078       26.2935036235      -29.1367741586  W2        2680            0.0000000000
      8039      2680  TIP3      H1            -20.0067487078       26.9602036235      -29.8168041586  W2        2680            0.0000000000
      8040      2680  TIP3      H2            -20.2432287078       25.4781336235      -29.6182241586  W2        2680            0.0000000000
      8041      2681  TIP3      OH2           -20.9337187078       27.6737436235      -23.5157441586  W2        2681            0.0000000000
      8042      2681  TIP3      H1            -21.0838387078       26.7286036235      -23.5359641586  W2        2681            0.0000000000
      8043      2681  TIP3      H2            -21.2872687078       27.9548836235      -22.6718341586  W2        2681            0.0000000000
      8044      2682  TIP3      OH2           -35.8984787078       29.7519636235      -19.5053641586  W2        2682            0.0000000000
      8045      2682  TIP3      H1            -35.7141887078       29.6701336235      -20.4410741586  W2        2682            0.0000000000
      8046      2682  TIP3      H2            -35.0491887078       29.6276636235      -19.0817241586  W2        2682            0.0000000000
      8047      2683  TIP3      OH2           -20.0774287078       29.6440736235      -13.8769141586  W2        2683            0.0000000000
      8048      2683  TIP3      H1            -19.4946987078       28.9093036235      -13.6851941586  W2        2683            0.0000000000
      8049      2683  TIP3      H2            -19.5134987078       30.4161036235      -13.8303341586  W2        2683            0.0000000000
      8050      2684  TIP3      OH2           -18.5807187078       27.5466536235      -13.1923741586  W2        2684            0.0000000000
      8051      2684  TIP3      H1            -19.4440487078       27.1678636235      -13.3579041586  W2        2684            0.0000000000
      8052      2684  TIP3      H2            -17.9763487078       26.8081336235      -13.2667941586  W2        2684            0.0000000000
      8053      2685  TIP3      OH2           -20.8558087078       23.7014836235      -30.0192241586  W2        2685            0.0000000000
      8054      2685  TIP3      H1            -20.2452287078       23.3301636235      -29.3824041586  W2        2685            0.0000000000
      8055      2685  TIP3      H2            -21.6926587078       23.2801736235      -29.8232241586  W2        2685            0.0000000000
      8056      2686  TIP3      OH2           -21.2232387078       25.2563236235      -25.0532341586  W2        2686            0.0000000000
      8057      2686  TIP3      H1            -20.9435287078       24.3493636235      -24.9290641586  W2        2686            0.0000000000
      8058      2686  TIP3      H2            -20.4640687078       25.6904736235      -25.4423141586  W2        2686            0.0000000000
      8059      2687  TIP3      OH2           -20.6114087078       25.8380636235      -19.6173441586  W2        2687            0.0000000000
      8060      2687  TIP3      H1            -19.6786087078       26.0500536235      -19.6517441586  W2        2687            0.0000000000
      8061      2687  TIP3      H2            -20.8466587078       25.9392736235      -18.6950441586  W2        2687            0.0000000000
      8062      2688  TIP3      OH2           -20.5822187078       26.5745936235      -16.8414041586  W2        2688            0.0000000000
      8063      2688  TIP3      H1            -21.4250887078       26.8426336235      -16.4754241586  W2        2688            0.0000000000
      8064      2688  TIP3      H2            -20.1397887078       27.3967836235      -17.0522941586  W2        2688            0.0000000000
      8065      2689  TIP3      OH2           -36.3009987078       25.0224636235      -13.3644841586  W2        2689            0.0000000000
      8066      2689  TIP3      H1            -35.3815087078       24.9002936235      -13.1281741586  W2        2689            0.0000000000
      8067      2689  TIP3      H2            -36.7505487078       24.2724336235      -12.9751341586  W2        2689            0.0000000000
      8068      2690  TIP3      OH2           -18.2990587078       20.5546136235      -11.4879041586  W2        2690            0.0000000000
      8069      2690  TIP3      H1            -17.9493587078       19.9009636235      -12.0934341586  W2        2690            0.0000000000
      8070      2690  TIP3      H2            -18.1521087078       21.3920236235      -11.9276441586  W2        2690            0.0000000000
      8071      2691  TIP3      OH2           -20.6097587078       22.5192536235      -25.0050341586  W2        2691            0.0000000000
      8072      2691  TIP3      H1            -20.4272587078       22.0704036235      -24.1795341586  W2        2691            0.0000000000
      8073      2691  TIP3      H2            -21.2094687078       21.9346936235      -25.4685741586  W2        2691            0.0000000000
      8074      2692  TIP3      OH2           -35.0797487078       23.3346236235      -20.4731941586  W2        2692            0.0000000000
      8075      2692  TIP3      H1            -34.6345887078       22.5428736235      -20.1712241586  W2        2692            0.0000000000
      8076      2692  TIP3      H2            -34.6134487078       24.0511436235      -20.0426341586  W2        2692            0.0000000000
      8077      2693  TIP3      OH2           -36.7757187078       26.3339236235      -19.4041741586  W2        2693            0.0000000000
      8078      2693  TIP3      H1            -36.2837387078       26.1129736235      -20.1949741586  W2        2693            0.0000000000
      8079      2693  TIP3      H2            -36.4136287078       27.1742636235      -19.1232241586  W2        2693            0.0000000000
      8080      2694  TIP3      OH2           -18.7793387078       22.6640736235      -13.1387741586  W2        2694            0.0000000000
      8081      2694  TIP3      H1            -19.6967687078       22.9347836235      -13.1744241586  W2        2694            0.0000000000
      8082      2694  TIP3      H2            -18.6563987078       22.1289136235      -13.9228041586  W2        2694            0.0000000000
      8083      2695  TIP3      OH2           -18.7431387078       22.5870636235      -28.4770041586  W2        2695            0.0000000000
      8084      2695  TIP3      H1            -18.3308787078       21.8656336235      -28.9522041586  W2        2695            0.0000000000
      8085      2695  TIP3      H2            -18.0614887078       23.2565236235      -28.4185741586  W2        2695            0.0000000000
      8086      2696  TIP3      OH2           -36.4620687078       22.5918336235      -25.3499341586  W2        2696            0.0000000000
      8087      2696  TIP3      H1            -37.3872287078       22.8004936235      -25.4793841586  W2        2696            0.0000000000
      8088      2696  TIP3      H2            -36.0080787078       23.0759136235      -26.0397041586  W2        2696            0.0000000000
      8089      2697  TIP3      OH2           -36.4985287078       21.3297336235      -17.0056841586  W2        2697            0.0000000000
      8090      2697  TIP3      H1            -37.1634787078       21.0837636235      -16.3625941586  W2        2697            0.0000000000
      8091      2697  TIP3      H2            -36.9413987078       21.9517736235      -17.5828841586  W2        2697            0.0000000000
      8092      2698  TIP3      OH2           -34.3065987078       34.5051436235      -12.8611041586  W2        2698            0.0000000000
      8093      2698  TIP3      H1            -35.1273487078       34.6797936235      -13.3216341586  W2        2698            0.0000000000
      8094      2698  TIP3      H2            -34.5588187078       34.4316136235      -11.9406641586  W2        2698            0.0000000000
      8095      2699  TIP3      OH2           -31.3523087078       35.4792636235      -16.6027041586  W2        2699            0.0000000000
      8096      2699  TIP3      H1            -31.7771987078       36.2891136235      -16.8852441586  W2        2699            0.0000000000
      8097      2699  TIP3      H2            -30.4480287078       35.5646736235      -16.9047241586  W2        2699            0.0000000000
      8098      2700  TIP3      OH2           -19.7787487078       20.7537036235      -15.3196941586  W2        2700            0.0000000000
      8099      2700  TIP3      H1            -20.5913987078       21.0787336235      -15.7072241586  W2        2700            0.0000000000
      8100      2700  TIP3      H2            -19.5458987078       19.9935536235      -15.8527841586  W2        2700            0.0000000000
      8101      2701  TIP3      OH2           -32.3945187078       36.0687736235      -20.9900041586  W2        2701            0.0000000000
      8102      2701  TIP3      H1            -32.6134487078       35.1525136235      -20.8204041586  W2        2701            0.0000000000
      8103      2701  TIP3      H2            -31.5702987078       36.2088136235      -20.5238641586  W2        2701            0.0000000000
      8104      2702  TIP3      OH2           -29.8572687078       36.5387036235      -20.1412041586  W2        2702            0.0000000000
      8105      2702  TIP3      H1            -29.6446987078       35.6506036235      -20.4281141586  W2        2702            0.0000000000
      8106      2702  TIP3      H2            -29.7927587078       36.5044736235      -19.1868041586  W2        2702            0.0000000000
      8107      2703  TIP3      OH2           -26.3488987078       22.2027636235      -20.9968741586  W2        2703            0.0000000000
      8108      2703  TIP3      H1            -27.0232187078       21.5733236235      -20.7412941586  W2        2703            0.0000000000
      8109      2703  TIP3      H2            -25.7849787078       21.7186536235      -21.6000841586  W2        2703            0.0000000000
      8110      2704  TIP3      OH2           -21.2061787078       20.3101636235      -20.8841641586  W2        2704            0.0000000000
      8111      2704  TIP3      H1            -20.6024187078       20.8577036235      -21.3860641586  W2        2704            0.0000000000
      8112      2704  TIP3      H2            -22.0759787078       20.6292036235      -21.1247541586  W2        2704            0.0000000000
      8113      2705  TIP3      OH2           -19.4791387078       21.4490336235      -22.5510741586  W2        2705            0.0000000000
      8114      2705  TIP3      H1            -18.8673887078       20.9346036235      -23.0777141586  W2        2705            0.0000000000
      8115      2705  TIP3      H2            -19.0967987078       22.3262436235      -22.5276341586  W2        2705            0.0000000000
      8116      2706  TIP3      OH2           -34.0221487078       20.8367936235      -23.1748841586  W2        2706            0.0000000000
      8117      2706  TIP3      H1            -34.7991687078       20.6022836235      -23.6822941586  W2        2706            0.0000000000
      8118      2706  TIP3      H2            -33.4917887078       20.0400036235      -23.1660841586  W2        2706            0.0000000000
      8119      2707  TIP3      OH2           -35.1858087078       20.6346036235      -27.3712741586  W2        2707            0.0000000000
      8120      2707  TIP3      H1            -34.7467387078       21.2456536235      -27.9629241586  W2        2707            0.0000000000
      8121      2707  TIP3      H2            -35.8195687078       21.1730136235      -26.8972741586  W2        2707            0.0000000000
      8122      2708  TIP3      OH2           -29.4428887078       20.7635036235      -23.3615741586  W2        2708            0.0000000000
      8123      2708  TIP3      H1            -28.5685487078       21.1519336235      -23.3911441586  W2        2708            0.0000000000
      8124      2708  TIP3      H2            -29.5788087078       20.5482836235      -22.4388541586  W2        2708            0.0000000000
      8125      2709  TIP3      OH2           -23.8860487078       20.7934836235      -21.7124041586  W2        2709            0.0000000000
      8126      2709  TIP3      H1            -23.8098887078       20.8886436235      -22.6618041586  W2        2709            0.0000000000
      8127      2709  TIP3      H2            -24.1611287078       19.8857736235      -21.5834941586  W2        2709            0.0000000000
      8128      2710  TIP3      OH2           -22.5327887078       20.8192636235      -26.0199041586  W2        2710            0.0000000000
      8129      2710  TIP3      H1            -23.2356787078       21.4341836235      -26.2297641586  W2        2710            0.0000000000
      8130      2710  TIP3      H2            -22.9776487078       19.9819336235      -25.8888141586  W2        2710            0.0000000000
      8131      2711  TIP3      OH2           -35.2848587078       36.5828236235      -26.4737641586  W2        2711            0.0000000000
      8132      2711  TIP3      H1            -35.9698687078       36.5447136235      -27.1412541586  W2        2711            0.0000000000
      8133      2711  TIP3      H2            -35.2811387078       37.4955836235      -26.1855541586  W2        2711            0.0000000000
      8134      2712  TIP3      OH2           -33.3248987078       22.5507536235      -28.9288641586  W2        2712            0.0000000000
      8135      2712  TIP3      H1            -32.8335587078       21.9209936235      -29.4563141586  W2        2712            0.0000000000
      8136      2712  TIP3      H2            -32.7012687078       22.8466936235      -28.2657441586  W2        2712            0.0000000000
      8137      2713  TIP3      OH2           -28.2988887078       22.8439036235      -26.4718141586  W2        2713            0.0000000000
      8138      2713  TIP3      H1            -28.1207587078       22.1972236235      -25.7889541586  W2        2713            0.0000000000
      8139      2713  TIP3      H2            -28.3522687078       23.6776736235      -26.0047041586  W2        2713            0.0000000000
      8140      2714  TIP3      OH2           -34.0643487078       21.3509836235      -13.6572641586  W2        2714            0.0000000000
      8141      2714  TIP3      H1            -34.4305287078       20.5852436235      -13.2147941586  W2        2714            0.0000000000
      8142      2714  TIP3      H2            -33.1514987078       21.3800036235      -13.3707541586  W2        2714            0.0000000000
      8143      2715  TIP3      OH2           -32.0912687078       20.7014236235      -12.1215541586  W2        2715            0.0000000000
      8144      2715  TIP3      H1            -31.1929087078       20.4274436235      -12.3062141586  W2        2715            0.0000000000
      8145      2715  TIP3      H2            -32.4779587078       19.9590236235      -11.6572941586  W2        2715            0.0000000000
      8146      2716  TIP3      OH2           -23.6700387078       20.0339536235      -11.9392741586  W2        2716            0.0000000000
      8147      2716  TIP3      H1            -23.5933187078       19.6080236235      -11.0855041586  W2        2716            0.0000000000
      8148      2716  TIP3      H2            -22.7763787078       20.0474236235      -12.2819241586  W2        2716            0.0000000000
      8149      2717  TIP3      OH2           -20.4939287078       36.1065836235      -13.2468541586  W2        2717            0.0000000000
      8150      2717  TIP3      H1            -21.2757387078       35.9203836235      -13.7667941586  W2        2717            0.0000000000
      8151      2717  TIP3      H2            -20.5659387078       37.0360136235      -13.0296041586  W2        2717            0.0000000000
      8152      2718  TIP3      OH2            -6.0878887078       29.9930236235      -23.2161341586  W2        2718            0.0000000000
      8153      2718  TIP3      H1             -5.9987787078       30.9368436235      -23.3484241586  W2        2718            0.0000000000
      8154      2718  TIP3      H2             -6.7261287078       29.7176636235      -23.8741941586  W2        2718            0.0000000000
      8155      2719  TIP3      OH2            -7.1547587078       29.2480936235      -19.7973141586  W2        2719            0.0000000000
      8156      2719  TIP3      H1             -7.1930087078       28.6017236235      -19.0923541586  W2        2719            0.0000000000
      8157      2719  TIP3      H2             -7.4771087078       28.7815336235      -20.5684441586  W2        2719            0.0000000000
      8158      2720  TIP3      OH2           -14.7862587078       28.8623036235      -18.2043241586  W2        2720            0.0000000000
      8159      2720  TIP3      H1            -14.7450487078       28.2366336235      -17.4810841586  W2        2720            0.0000000000
      8160      2720  TIP3      H2            -14.0834887078       29.4861636235      -18.0222841586  W2        2720            0.0000000000
      8161      2721  TIP3      OH2            -3.4487387078       32.1871336235      -21.4958041586  W2        2721            0.0000000000
      8162      2721  TIP3      H1             -3.8894687078       31.4667336235      -21.0452441586  W2        2721            0.0000000000
      8163      2721  TIP3      H2             -3.4617687078       32.9078536235      -20.8660341586  W2        2721            0.0000000000
      8164      2722  TIP3      OH2           -13.8629487078       33.3121936235      -19.6694141586  W2        2722            0.0000000000
      8165      2722  TIP3      H1            -14.2324287078       32.5102436235      -20.0389841586  W2        2722            0.0000000000
      8166      2722  TIP3      H2            -12.9218387078       33.1436836235      -19.6230741586  W2        2722            0.0000000000
      8167      2723  TIP3      OH2           -17.2528987078       26.9724536235      -24.2765341586  W2        2723            0.0000000000
      8168      2723  TIP3      H1            -17.7005587078       27.8183236235      -24.2948841586  W2        2723            0.0000000000
      8169      2723  TIP3      H2            -17.8137787078       26.3928736235      -24.7920241586  W2        2723            0.0000000000
      8170      2724  TIP3      OH2           -16.5422887078       29.1344136235      -22.1507341586  W2        2724            0.0000000000
      8171      2724  TIP3      H1            -16.3289387078       28.3645736235      -21.6234341586  W2        2724            0.0000000000
      8172      2724  TIP3      H2            -15.8045287078       29.2240836235      -22.7539741586  W2        2724            0.0000000000
      8173      2725  TIP3      OH2            -8.7653187078       31.6802336235      -19.3912141586  W2        2725            0.0000000000
      8174      2725  TIP3      H1             -8.4615287078       30.9943736235      -19.9858041586  W2        2725            0.0000000000
      8175      2725  TIP3      H2             -8.0439187078       31.7991036235      -18.7734141586  W2        2725            0.0000000000
      8176      2726  TIP3      OH2            -0.1023387078       23.2817636235      -18.5305941586  W2        2726            0.0000000000
      8177      2726  TIP3      H1             -0.0531187078       23.8918836235      -17.7946841586  W2        2726            0.0000000000
      8178      2726  TIP3      H2              0.3231712922       23.7428536235      -19.2534841586  W2        2726            0.0000000000
      8179      2727  TIP3      OH2            -5.6246187078       26.0744736235      -19.0637341586  W2        2727            0.0000000000
      8180      2727  TIP3      H1             -5.4820287078       25.1281736235      -19.0435741586  W2        2727            0.0000000000
      8181      2727  TIP3      H2             -5.7307187078       26.2814536235      -19.9922441586  W2        2727            0.0000000000
      8182      2728  TIP3      OH2           -12.4697887078       24.1761136235      -21.7912541586  W2        2728            0.0000000000
      8183      2728  TIP3      H1            -12.4266787078       25.0359636235      -22.2096241586  W2        2728            0.0000000000
      8184      2728  TIP3      H2            -12.9273787078       23.6235836235      -22.4249341586  W2        2728            0.0000000000
      8185      2729  TIP3      OH2            -4.7475187078       24.3066736235      -23.3904241586  W2        2729            0.0000000000
      8186      2729  TIP3      H1             -4.1010887078       23.9779936235      -22.7656641586  W2        2729            0.0000000000
      8187      2729  TIP3      H2             -4.2375787078       24.8245736235      -24.0132841586  W2        2729            0.0000000000
      8188      2730  TIP3      OH2           -15.8496387078       26.5726936235      -21.0291141586  W2        2730            0.0000000000
      8189      2730  TIP3      H1            -15.1959787078       26.0228636235      -20.5971041586  W2        2730            0.0000000000
      8190      2730  TIP3      H2            -15.8257087078       26.2985936235      -21.9459141586  W2        2730            0.0000000000
      8191      2731  TIP3      OH2           -10.6931887078       28.1228236235      -21.8139641586  W2        2731            0.0000000000
      8192      2731  TIP3      H1            -10.0770887078       27.5963636235      -21.3045641586  W2        2731            0.0000000000
      8193      2731  TIP3      H2            -11.2793087078       27.4826936235      -22.2176041586  W2        2731            0.0000000000
      8194      2732  TIP3      OH2             0.2891212922       24.7596836235      -16.2946141586  W2        2732            0.0000000000
      8195      2732  TIP3      H1             -0.3994187078       25.4177536235      -16.3899541586  W2        2732            0.0000000000
      8196      2732  TIP3      H2              0.3045812922       24.5624736235      -15.3580741586  W2        2732            0.0000000000
      8197      2733  TIP3      OH2           -13.6595987078       23.0939536235      -17.7171741586  W2        2733            0.0000000000
      8198      2733  TIP3      H1            -13.8784287078       23.6240136235      -18.4835741586  W2        2733            0.0000000000
      8199      2733  TIP3      H2            -14.3275087078       23.3205036235      -17.0700341586  W2        2733            0.0000000000
      8200      2734  TIP3      OH2            -6.2906187078       32.5940636235      -24.1732641586  W2        2734            0.0000000000
      8201      2734  TIP3      H1             -6.5861087078       32.2712936235      -25.0245741586  W2        2734            0.0000000000
      8202      2734  TIP3      H2             -6.6148387078       33.4937336235      -24.1320041586  W2        2734            0.0000000000
      8203      2735  TIP3      OH2           -11.0904587078       30.7695236235      -17.4298041586  W2        2735            0.0000000000
      8204      2735  TIP3      H1            -11.8305487078       31.3676736235      -17.3262841586  W2        2735            0.0000000000
      8205      2735  TIP3      H2            -10.3765087078       31.3234836235      -17.7454441586  W2        2735            0.0000000000
      8206      2736  TIP3      OH2            -2.9836787078       23.5976036235      -21.4098341586  W2        2736            0.0000000000
      8207      2736  TIP3      H1             -3.1988787078       22.8319436235      -20.8772341586  W2        2736            0.0000000000
      8208      2736  TIP3      H2             -2.3279387078       24.0700636235      -20.8969841586  W2        2736            0.0000000000
      8209      2737  TIP3      OH2           -14.0658687078       24.9861336235      -19.7649541586  W2        2737            0.0000000000
      8210      2737  TIP3      H1            -13.4522387078       25.6188936235      -19.3917141586  W2        2737            0.0000000000
      8211      2737  TIP3      H2            -13.5537987078       24.5136336235      -20.4212641586  W2        2737            0.0000000000
      8212      2738  TIP3      OH2           -12.6830287078       32.7338236235      -16.6426541586  W2        2738            0.0000000000
      8213      2738  TIP3      H1            -12.6882687078       33.6131736235      -17.0207241586  W2        2738            0.0000000000
      8214      2738  TIP3      H2            -13.5366187078       32.6502336235      -16.2176641586  W2        2738            0.0000000000
      8215      2739  TIP3      OH2           -16.5619387078       32.4046136235      -25.8607241586  W2        2739            0.0000000000
      8216      2739  TIP3      H1            -16.8338487078       32.6337136235      -26.7494341586  W2        2739            0.0000000000
      8217      2739  TIP3      H2            -16.5163687078       33.2424936235      -25.4001941586  W2        2739            0.0000000000
      8218      2740  TIP3      OH2            -2.9369687078       34.0262036235      -19.1478741586  W2        2740            0.0000000000
      8219      2740  TIP3      H1             -3.8785987078       34.0845936235      -18.9861841586  W2        2740            0.0000000000
      8220      2740  TIP3      H2             -2.6603587078       34.9322536235      -19.2849041586  W2        2740            0.0000000000
      8221      2741  TIP3      OH2            -2.6362687078       22.3127336235      -17.7304841586  W2        2741            0.0000000000
      8222      2741  TIP3      H1             -3.3723487078       22.9234436235      -17.7683541586  W2        2741            0.0000000000
      8223      2741  TIP3      H2             -1.9528687078       22.7276336235      -18.2568441586  W2        2741            0.0000000000
      8224      2742  TIP3      OH2            -9.6331287078       20.3994636235      -20.2646841586  W2        2742            0.0000000000
      8225      2742  TIP3      H1             -9.7507087078       19.4510636235      -20.3188541586  W2        2742            0.0000000000
      8226      2742  TIP3      H2            -10.4881187078       20.7320736235      -19.9915741586  W2        2742            0.0000000000
      8227      2743  TIP3      OH2            -4.6848487078       35.8075536235      -22.5227141586  W2        2743            0.0000000000
      8228      2743  TIP3      H1             -4.2596187078       35.1003436235      -23.0077541586  W2        2743            0.0000000000
      8229      2743  TIP3      H2             -4.3678487078       36.6088236235      -22.9394941586  W2        2743            0.0000000000
      8230      2744  TIP3      OH2            -3.5251987078       33.7084036235      -24.0140541586  W2        2744            0.0000000000
      8231      2744  TIP3      H1             -3.7827187078       33.0184136235      -24.6254641586  W2        2744            0.0000000000
      8232      2744  TIP3      H2             -3.4541187078       33.2655236235      -23.1684641586  W2        2744            0.0000000000
      8233      2745  TIP3      OH2            -1.8391787078       32.2750736235      -15.5367041586  W2        2745            0.0000000000
      8234      2745  TIP3      H1             -1.6995487078       31.6833236235      -16.2760041586  W2        2745            0.0000000000
      8235      2745  TIP3      H2             -1.6718987078       33.1476636235      -15.8928241586  W2        2745            0.0000000000
      8236      2746  TIP3      OH2            -7.3666387078       29.2370236235      -25.7641041586  W2        2746            0.0000000000
      8237      2746  TIP3      H1             -8.0780887078       29.7719936235      -26.1160541586  W2        2746            0.0000000000
      8238      2746  TIP3      H2             -6.6756787078       29.2922336235      -26.4242141586  W2        2746            0.0000000000
      8239      2747  TIP3      OH2            -7.3127187078       27.6944536235      -28.7256041586  W2        2747            0.0000000000
      8240      2747  TIP3      H1             -6.6117287078       27.7171436235      -28.0742041586  W2        2747            0.0000000000
      8241      2747  TIP3      H2             -7.0104287078       27.0664236235      -29.3816741586  W2        2747            0.0000000000
      8242      2748  TIP3      OH2             0.0027512922       28.6148736235      -17.4706641586  W2        2748            0.0000000000
      8243      2748  TIP3      H1             -0.6498387078       29.3094336235      -17.3815741586  W2        2748            0.0000000000
      8244      2748  TIP3      H2              0.4677812922       28.8249636235      -18.2805041586  W2        2748            0.0000000000
      8245      2749  TIP3      OH2            -3.9608687078       29.4463536235      -24.8125141586  W2        2749            0.0000000000
      8246      2749  TIP3      H1             -4.6927687078       29.6747236235      -24.2394541586  W2        2749            0.0000000000
      8247      2749  TIP3      H2             -3.5136487078       28.7326236235      -24.3577641586  W2        2749            0.0000000000
      8248      2750  TIP3      OH2            -4.0635187078       27.6206136235      -15.7448141586  W2        2750            0.0000000000
      8249      2750  TIP3      H1             -3.9836087078       28.3840536235      -15.1729641586  W2        2750            0.0000000000
      8250      2750  TIP3      H2             -4.6647487078       27.8998536235      -16.4353041586  W2        2750            0.0000000000
      8251      2751  TIP3      OH2           -12.3154987078       30.0769736235      -22.9300141586  W2        2751            0.0000000000
      8252      2751  TIP3      H1            -12.6459787078       29.7063136235      -23.7483141586  W2        2751            0.0000000000
      8253      2751  TIP3      H2            -11.7270887078       29.4063736235      -22.5831841586  W2        2751            0.0000000000
      8254      2752  TIP3      OH2           -10.9487487078       33.5050336235      -20.2487941586  W2        2752            0.0000000000
      8255      2752  TIP3      H1            -11.0436187078       32.9263436235      -21.0053341586  W2        2752            0.0000000000
      8256      2752  TIP3      H2            -10.2193887078       33.1336036235      -19.7525141586  W2        2752            0.0000000000
      8257      2753  TIP3      OH2           -11.9489487078       28.8455336235      -19.2965141586  W2        2753            0.0000000000
      8258      2753  TIP3      H1            -11.3836987078       28.9669536235      -20.0593941586  W2        2753            0.0000000000
      8259      2753  TIP3      H2            -11.6300587078       29.4830336235      -18.6576641586  W2        2753            0.0000000000
      8260      2754  TIP3      OH2            -5.6397287078       34.3487236235      -18.5624641586  W2        2754            0.0000000000
      8261      2754  TIP3      H1             -5.8800687078       35.0110336235      -17.9145441586  W2        2754            0.0000000000
      8262      2754  TIP3      H2             -5.8379087078       33.5142436235      -18.1375041586  W2        2754            0.0000000000
      8263      2755  TIP3      OH2           -11.0688787078       33.2448036235      -14.5793241586  W2        2755            0.0000000000
      8264      2755  TIP3      H1            -11.3801287078       34.0271236235      -14.1240041586  W2        2755            0.0000000000
      8265      2755  TIP3      H2            -11.7188587078       33.0917136235      -15.2651241586  W2        2755            0.0000000000
      8266      2756  TIP3      OH2            -5.0899187078       28.6086436235      -27.1273941586  W2        2756            0.0000000000
      8267      2756  TIP3      H1             -4.5103687078       28.7586736235      -26.3805041586  W2        2756            0.0000000000
      8268      2756  TIP3      H2             -4.6759187078       29.0793836235      -27.8507541586  W2        2756            0.0000000000
      8269      2757  TIP3      OH2           -14.1488887078       29.4429136235      -15.3507541586  W2        2757            0.0000000000
      8270      2757  TIP3      H1            -14.0785687078       30.0935936235      -14.6522541586  W2        2757            0.0000000000
      8271      2757  TIP3      H2            -15.0396687078       29.5456636235      -15.6856641586  W2        2757            0.0000000000
      8272      2758  TIP3      OH2            -7.3634287078       35.3454936235      -23.6920841586  W2        2758            0.0000000000
      8273      2758  TIP3      H1             -6.8896687078       35.6411236235      -22.9146641586  W2        2758            0.0000000000
      8274      2758  TIP3      H2             -7.9264987078       36.0836536235      -23.9251241586  W2        2758            0.0000000000
      8275      2759  TIP3      OH2           -12.8292887078       35.3163036235      -13.8159441586  W2        2759            0.0000000000
      8276      2759  TIP3      H1            -12.8217587078       35.1802736235      -14.7633941586  W2        2759            0.0000000000
      8277      2759  TIP3      H2            -13.7452487078       35.1991136235      -13.5639441586  W2        2759            0.0000000000
      8278      2760  TIP3      OH2            -1.3910787078       20.3586836235      -27.3144241586  W2        2760            0.0000000000
      8279      2760  TIP3      H1             -2.2910087078       20.4975836235      -27.0193641586  W2        2760            0.0000000000
      8280      2760  TIP3      H2             -1.1392387078       21.1901436235      -27.7162541586  W2        2760            0.0000000000
      8281      2761  TIP3      OH2           -13.3252287078       29.1464036235      -25.3407341586  W2        2761            0.0000000000
      8282      2761  TIP3      H1            -13.6170987078       29.9145736235      -25.8316041586  W2        2761            0.0000000000
      8283      2761  TIP3      H2            -13.9997087078       28.4870236235      -25.5035941586  W2        2761            0.0000000000
      8284      2762  TIP3      OH2            -0.2019387078       34.7249236235      -28.9380341586  W2        2762            0.0000000000
      8285      2762  TIP3      H1             -0.1285887078       35.6639436235      -28.7675041586  W2        2762            0.0000000000
      8286      2762  TIP3      H2              0.7035712922       34.4197836235      -28.9943041586  W2        2762            0.0000000000
      8287      2763  TIP3      OH2           -17.2322187078       31.5093236235      -16.5257541586  W2        2763            0.0000000000
      8288      2763  TIP3      H1            -17.7333787078       31.4812636235      -17.3407841586  W2        2763            0.0000000000
      8289      2763  TIP3      H2            -17.2268487078       30.6036436235      -16.2160241586  W2        2763            0.0000000000
      8290      2764  TIP3      OH2           -17.4819487078       34.2897036235      -19.6417341586  W2        2764            0.0000000000
      8291      2764  TIP3      H1            -16.5358887078       34.1454036235      -19.6607841586  W2        2764            0.0000000000
      8292      2764  TIP3      H2            -17.5943187078       35.0739836235      -19.1046141586  W2        2764            0.0000000000
      8293      2765  TIP3      OH2             0.7159012922       34.9556736235      -13.9593641586  W2        2765            0.0000000000
      8294      2765  TIP3      H1              0.6665812922       34.0004836235      -13.9966041586  W2        2765            0.0000000000
      8295      2765  TIP3      H2             -0.1108687078       35.2232036235      -13.5579841586  W2        2765            0.0000000000
      8296      2766  TIP3      OH2            -8.3056987078       34.5295936235      -15.0832241586  W2        2766            0.0000000000
      8297      2766  TIP3      H1             -8.2182387078       35.3560536235      -14.6083141586  W2        2766            0.0000000000
      8298      2766  TIP3      H2             -9.1691887078       34.1999736235      -14.8342941586  W2        2766            0.0000000000
      8299      2767  TIP3      OH2            -2.1321187078       26.4489236235      -13.4791441586  W2        2767            0.0000000000
      8300      2767  TIP3      H1             -2.5394387078       26.9294836235      -14.1998141586  W2        2767            0.0000000000
      8301      2767  TIP3      H2             -2.0915487078       25.5435236235      -13.7870641586  W2        2767            0.0000000000
      8302      2768  TIP3      OH2           -14.9831687078       32.8328636235      -15.4824741586  W2        2768            0.0000000000
      8303      2768  TIP3      H1            -14.7670387078       32.4714236235      -14.6228941586  W2        2768            0.0000000000
      8304      2768  TIP3      H2            -15.8386987078       32.4582436235      -15.6921241586  W2        2768            0.0000000000
      8305      2769  TIP3      OH2           -12.3643687078       21.3029136235      -19.4870541586  W2        2769            0.0000000000
      8306      2769  TIP3      H1            -13.2259987078       21.2157336235      -19.8947641586  W2        2769            0.0000000000
      8307      2769  TIP3      H2            -12.3867987078       22.1589236235      -19.0592941586  W2        2769            0.0000000000
      8308      2770  TIP3      OH2            -7.7015887078       21.0249536235      -16.1123541586  W2        2770            0.0000000000
      8309      2770  TIP3      H1             -7.2812787078       20.6096636235      -15.3592941586  W2        2770            0.0000000000
      8310      2770  TIP3      H2             -8.6346287078       20.8462836235      -15.9951541586  W2        2770            0.0000000000
      8311      2771  TIP3      OH2            -4.3750987078       24.7804736235      -15.2589041586  W2        2771            0.0000000000
      8312      2771  TIP3      H1             -4.8891487078       24.6546936235      -14.4613041586  W2        2771            0.0000000000
      8313      2771  TIP3      H2             -4.5306287078       25.6927836235      -15.5032841586  W2        2771            0.0000000000
      8314      2772  TIP3      OH2            -3.6126087078       29.6414736235      -29.4976041586  W2        2772            0.0000000000
      8315      2772  TIP3      H1             -3.5705287078       29.4188636235      -30.4276041586  W2        2772            0.0000000000
      8316      2772  TIP3      H2             -2.7633987078       30.0401836235      -29.3076141586  W2        2772            0.0000000000
      8317      2773  TIP3      OH2            -8.0398587078       23.5172936235      -28.8272741586  W2        2773            0.0000000000
      8318      2773  TIP3      H1             -8.2933787078       23.5364536235      -27.9044641586  W2        2773            0.0000000000
      8319      2773  TIP3      H2             -8.2966487078       22.6458336235      -29.1286541586  W2        2773            0.0000000000
      8320      2774  TIP3      OH2           -12.2733587078       26.2683636235      -18.3920341586  W2        2774            0.0000000000
      8321      2774  TIP3      H1            -12.9151487078       26.2280936235      -17.6830241586  W2        2774            0.0000000000
      8322      2774  TIP3      H2            -12.2361587078       27.1948336235      -18.6297341586  W2        2774            0.0000000000
      8323      2775  TIP3      OH2           -12.2764487078       26.4893736235      -23.4800341586  W2        2775            0.0000000000
      8324      2775  TIP3      H1            -13.1691587078       26.1489836235      -23.5386541586  W2        2775            0.0000000000
      8325      2775  TIP3      H2            -11.8257887078       26.1124636235      -24.2357141586  W2        2775            0.0000000000
      8326      2776  TIP3      OH2            -6.7408987078       26.9054036235      -24.6629541586  W2        2776            0.0000000000
      8327      2776  TIP3      H1             -7.1498687078       27.7202636235      -24.9544741586  W2        2776            0.0000000000
      8328      2776  TIP3      H2             -6.0202787078       26.7654136235      -25.2772441586  W2        2776            0.0000000000
      8329      2777  TIP3      OH2            -7.6387387078       27.0810436235      -13.1748841586  W2        2777            0.0000000000
      8330      2777  TIP3      H1             -8.2013587078       26.3762036235      -12.8541041586  W2        2777            0.0000000000
      8331      2777  TIP3      H2             -6.8123987078       26.9602336235      -12.7071241586  W2        2777            0.0000000000
      8332      2778  TIP3      OH2            -5.7361287078       26.3514436235      -21.8489841586  W2        2778            0.0000000000
      8333      2778  TIP3      H1             -5.9316787078       26.9571236235      -22.5639241586  W2        2778            0.0000000000
      8334      2778  TIP3      H2             -5.5548687078       25.5179636235      -22.2833541586  W2        2778            0.0000000000
      8335      2779  TIP3      OH2           -14.5233087078       26.5887136235      -16.5248341586  W2        2779            0.0000000000
      8336      2779  TIP3      H1            -14.5613687078       26.9888736235      -15.6561241586  W2        2779            0.0000000000
      8337      2779  TIP3      H2            -15.0141987078       25.7719536235      -16.4345441586  W2        2779            0.0000000000
      8338      2780  TIP3      OH2           -11.1575687078       23.9629436235      -29.7262341586  W2        2780            0.0000000000
      8339      2780  TIP3      H1            -11.5884987078       23.5179536235      -28.9964941586  W2        2780            0.0000000000
      8340      2780  TIP3      H2            -11.8756987078       24.3345736235      -30.2384841586  W2        2780            0.0000000000
      8341      2781  TIP3      OH2           -17.9152287078       23.7048936235      -22.6743641586  W2        2781            0.0000000000
      8342      2781  TIP3      H1            -17.2844587078       23.6761036235      -21.9549741586  W2        2781            0.0000000000
      8343      2781  TIP3      H2            -17.4657987078       23.2797636235      -23.4047741586  W2        2781            0.0000000000
      8344      2782  TIP3      OH2           -16.6410187078       24.4510936235      -27.2503241586  W2        2782            0.0000000000
      8345      2782  TIP3      H1            -16.1668487078       25.0420836235      -27.8352341586  W2        2782            0.0000000000
      8346      2782  TIP3      H2            -17.3583787078       24.9813836235      -26.9033141586  W2        2782            0.0000000000
      8347      2783  TIP3      OH2            -6.4722087078       27.9895736235      -17.1777441586  W2        2783            0.0000000000
      8348      2783  TIP3      H1             -6.1487287078       27.3585436235      -17.8206941586  W2        2783            0.0000000000
      8349      2783  TIP3      H2             -6.9122787078       27.4547936235      -16.5170041586  W2        2783            0.0000000000
      8350      2784  TIP3      OH2            -9.6949187078       23.9171236235      -22.3936241586  W2        2784            0.0000000000
      8351      2784  TIP3      H1            -10.6058087078       23.9738036235      -22.1050241586  W2        2784            0.0000000000
      8352      2784  TIP3      H2             -9.1896287078       23.8566736235      -21.5829041586  W2        2784            0.0000000000
      8353      2785  TIP3      OH2           -14.8665787078       25.5457536235      -23.5668641586  W2        2785            0.0000000000
      8354      2785  TIP3      H1            -15.7557787078       25.6453036235      -23.9069041586  W2        2785            0.0000000000
      8355      2785  TIP3      H2            -14.5700887078       24.7040536235      -23.9130741586  W2        2785            0.0000000000
      8356      2786  TIP3      OH2           -11.2133987078       25.5460136235      -25.9104041586  W2        2786            0.0000000000
      8357      2786  TIP3      H1            -10.2818487078       25.6750136235      -25.7320941586  W2        2786            0.0000000000
      8358      2786  TIP3      H2            -11.4283687078       26.2154436235      -26.5599341586  W2        2786            0.0000000000
      8359      2787  TIP3      OH2            -5.2897287078       23.1517536235      -19.1294441586  W2        2787            0.0000000000
      8360      2787  TIP3      H1             -5.9665687078       23.2830636235      -18.4654741586  W2        2787            0.0000000000
      8361      2787  TIP3      H2             -5.7752387078       22.9967036235      -19.9396741586  W2        2787            0.0000000000
      8362      2788  TIP3      OH2           -12.5393787078       26.7402336235      -28.3437941586  W2        2788            0.0000000000
      8363      2788  TIP3      H1            -13.0818687078       26.3606136235      -29.0350341586  W2        2788            0.0000000000
      8364      2788  TIP3      H2            -11.7058887078       26.9347036235      -28.7723841586  W2        2788            0.0000000000
      8365      2789  TIP3      OH2           -14.4042387078       31.2974236235      -13.2446341586  W2        2789            0.0000000000
      8366      2789  TIP3      H1            -13.6719987078       31.5520136235      -12.6831841586  W2        2789            0.0000000000
      8367      2789  TIP3      H2            -15.1843687078       31.5019636235      -12.7290941586  W2        2789            0.0000000000
      8368      2790  TIP3      OH2            -8.3749487078       26.7044236235      -20.5066641586  W2        2790            0.0000000000
      8369      2790  TIP3      H1             -7.8106087078       26.1580836235      -21.0537041586  W2        2790            0.0000000000
      8370      2790  TIP3      H2             -8.5226087078       26.1826136235      -19.7179041586  W2        2790            0.0000000000
      8371      2791  TIP3      OH2           -13.3729787078       22.8410336235      -24.0881841586  W2        2791            0.0000000000
      8372      2791  TIP3      H1            -13.6900287078       21.9385636235      -24.1236441586  W2        2791            0.0000000000
      8373      2791  TIP3      H2            -12.5915687078       22.8427736235      -24.6410241586  W2        2791            0.0000000000
      8374      2792  TIP3      OH2            -9.7483587078       25.0930336235      -18.0926241586  W2        2792            0.0000000000
      8375      2792  TIP3      H1            -10.5838287078       25.5469836235      -17.9823841586  W2        2792            0.0000000000
      8376      2792  TIP3      H2             -9.2242987078       25.3688836235      -17.3406341586  W2        2792            0.0000000000
      8377      2793  TIP3      OH2            -9.2040987078       31.3058036235      -26.4079841586  W2        2793            0.0000000000
      8378      2793  TIP3      H1             -9.9489987078       30.7983336235      -26.7301941586  W2        2793            0.0000000000
      8379      2793  TIP3      H2             -9.3383787078       31.3546036235      -25.4615041586  W2        2793            0.0000000000
      8380      2794  TIP3      OH2            -2.0542087078       30.4386236235      -17.6212241586  W2        2794            0.0000000000
      8381      2794  TIP3      H1             -1.4123287078       30.8952536235      -18.1650041586  W2        2794            0.0000000000
      8382      2794  TIP3      H2             -2.8845187078       30.5518636235      -18.0838141586  W2        2794            0.0000000000
      8383      2795  TIP3      OH2            -5.3064187078       24.1197936235      -28.2087241586  W2        2795            0.0000000000
      8384      2795  TIP3      H1             -6.2449987078       24.2313536235      -28.3598441586  W2        2795            0.0000000000
      8385      2795  TIP3      H2             -5.0092087078       24.9764836235      -27.9021541586  W2        2795            0.0000000000
      8386      2796  TIP3      OH2            -7.6848887078       31.4901336235      -15.1710741586  W2        2796            0.0000000000
      8387      2796  TIP3      H1             -8.0302787078       31.1083736235      -14.3641141586  W2        2796            0.0000000000
      8388      2796  TIP3      H2             -7.8848787078       32.4234936235      -15.0997841586  W2        2796            0.0000000000
      8389      2797  TIP3      OH2            -4.5880687078       25.9870636235      -26.5479841586  W2        2797            0.0000000000
      8390      2797  TIP3      H1             -3.6961687078       25.8495636235      -26.2288641586  W2        2797            0.0000000000
      8391      2797  TIP3      H2             -4.5317087078       26.7776736235      -27.0846341586  W2        2797            0.0000000000
      8392      2798  TIP3      OH2           -14.0792687078       30.6008036235      -20.6381941586  W2        2798            0.0000000000
      8393      2798  TIP3      H1            -13.3345487078       30.5983736235      -21.2395441586  W2        2798            0.0000000000
      8394      2798  TIP3      H2            -14.0016087078       29.7771836235      -20.1566841586  W2        2798            0.0000000000
      8395      2799  TIP3      OH2            -7.0786887078       32.7642336235      -27.3825241586  W2        2799            0.0000000000
      8396      2799  TIP3      H1             -7.3738487078       33.5910236235      -27.0010441586  W2        2799            0.0000000000
      8397      2799  TIP3      H2             -7.7816887078       32.1449236235      -27.1863841586  W2        2799            0.0000000000
      8398      2800  TIP3      OH2           -17.0712987078       29.0614936235      -15.3233441586  W2        2800            0.0000000000
      8399      2800  TIP3      H1            -16.8484387078       28.6434536235      -14.4915941586  W2        2800            0.0000000000
      8400      2800  TIP3      H2            -17.6732887078       28.4489936235      -15.7460641586  W2        2800            0.0000000000
      8401      2801  TIP3      OH2           -10.0548087078       28.5784836235      -13.1103741586  W2        2801            0.0000000000
      8402      2801  TIP3      H1            -10.3507287078       28.4127836235      -14.0054641586  W2        2801            0.0000000000
      8403      2801  TIP3      H2             -9.1232887078       28.3585136235      -13.1209841586  W2        2801            0.0000000000
      8404      2802  TIP3      OH2            -5.4345287078       33.9516836235      -15.2205741586  W2        2802            0.0000000000
      8405      2802  TIP3      H1             -6.3350987078       34.1349436235      -15.4881841586  W2        2802            0.0000000000
      8406      2802  TIP3      H2             -5.4004187078       34.2106136235      -14.2996941586  W2        2802            0.0000000000
      8407      2803  TIP3      OH2             0.2968012922       26.1964736235      -26.8533141586  W2        2803            0.0000000000
      8408      2803  TIP3      H1             -0.2575687078       25.8002736235      -27.5255641586  W2        2803            0.0000000000
      8409      2803  TIP3      H2              0.3971612922       27.1069936235      -27.1309841586  W2        2803            0.0000000000
      8410      2804  TIP3      OH2             0.2600012922       31.9966436235      -14.0161641586  W2        2804            0.0000000000
      8411      2804  TIP3      H1             -0.5911487078       32.2350236235      -14.3835241586  W2        2804            0.0000000000
      8412      2804  TIP3      H2              0.8503412922       31.9799636235      -14.7694541586  W2        2804            0.0000000000
      8413      2805  TIP3      OH2            -1.4080287078       34.9825136235      -26.3881041586  W2        2805            0.0000000000
      8414      2805  TIP3      H1             -1.7809187078       34.1568936235      -26.0790441586  W2        2805            0.0000000000
      8415      2805  TIP3      H2             -1.1306787078       34.7994536235      -27.2857641586  W2        2805            0.0000000000
      8416      2806  TIP3      OH2            -4.2476387078       29.7904636235      -19.3669141586  W2        2806            0.0000000000
      8417      2806  TIP3      H1             -5.1759487078       29.5586536235      -19.3939841586  W2        2806            0.0000000000
      8418      2806  TIP3      H2             -3.7965287078       29.0134436235      -19.6970341586  W2        2806            0.0000000000
      8419      2807  TIP3      OH2           -11.7043287078       34.1186236235      -23.2340441586  W2        2807            0.0000000000
      8420      2807  TIP3      H1            -11.1771087078       34.8920636235      -23.4341641586  W2        2807            0.0000000000
      8421      2807  TIP3      H2            -12.5844787078       34.3435436235      -23.5356441586  W2        2807            0.0000000000
      8422      2808  TIP3      OH2           -15.9495587078       28.9810336235      -28.6468041586  W2        2808            0.0000000000
      8423      2808  TIP3      H1            -15.3335687078       29.6077536235      -28.2673241586  W2        2808            0.0000000000
      8424      2808  TIP3      H2            -16.8112987078       29.2970136235      -28.3751541586  W2        2808            0.0000000000
      8425      2809  TIP3      OH2           -10.2770987078       31.7816136235      -23.6576141586  W2        2809            0.0000000000
      8426      2809  TIP3      H1            -10.5180987078       32.7070536235      -23.6160841586  W2        2809            0.0000000000
      8427      2809  TIP3      H2            -11.0177387078       31.3227436235      -23.2612241586  W2        2809            0.0000000000
      8428      2810  TIP3      OH2            -9.7624387078       35.9309736235      -17.3425041586  W2        2810            0.0000000000
      8429      2810  TIP3      H1             -9.3999687078       36.7855336235      -17.5760641586  W2        2810            0.0000000000
      8430      2810  TIP3      H2             -9.2309187078       35.6391336235      -16.6018741586  W2        2810            0.0000000000
      8431      2811  TIP3      OH2           -11.5940187078       36.8033736235      -24.1123941586  W2        2811            0.0000000000
      8432      2811  TIP3      H1            -12.5439687078       36.9091136235      -24.0610641586  W2        2811            0.0000000000
      8433      2811  TIP3      H2            -11.2422087078       37.6241136235      -23.7676441586  W2        2811            0.0000000000
      8434      2812  TIP3      OH2            -6.2183587078       32.0300436235      -17.6419441586  W2        2812            0.0000000000
      8435      2812  TIP3      H1             -6.6442287078       31.8022136235      -16.8155441586  W2        2812            0.0000000000
      8436      2812  TIP3      H2             -5.6377787078       31.2912236235      -17.8244141586  W2        2812            0.0000000000
      8437      2813  TIP3      OH2            -4.0154687078       32.9590936235      -28.5680441586  W2        2813            0.0000000000
      8438      2813  TIP3      H1             -3.6621587078       32.5790736235      -27.7636941586  W2        2813            0.0000000000
      8439      2813  TIP3      H2             -4.9641187078       32.8655736235      -28.4811141586  W2        2813            0.0000000000
      8440      2814  TIP3      OH2            -3.5599387078       36.5819936235      -15.1724641586  W2        2814            0.0000000000
      8441      2814  TIP3      H1             -4.1616187078       36.0262836235      -15.6678341586  W2        2814            0.0000000000
      8442      2814  TIP3      H2             -3.2785687078       37.2489736235      -15.7987241586  W2        2814            0.0000000000
      8443      2815  TIP3      OH2           -15.4373487078       23.8147636235      -15.7652041586  W2        2815            0.0000000000
      8444      2815  TIP3      H1            -16.3301187078       24.1533036235      -15.8328041586  W2        2815            0.0000000000
      8445      2815  TIP3      H2            -15.5360687078       22.9593736235      -15.3471241586  W2        2815            0.0000000000
      8446      2816  TIP3      OH2            -3.1495387078       31.6312936235      -26.3412541586  W2        2816            0.0000000000
      8447      2816  TIP3      H1             -3.4267787078       30.9032236235      -25.7851441586  W2        2816            0.0000000000
      8448      2816  TIP3      H2             -2.2222387078       31.7504936235      -26.1359941586  W2        2816            0.0000000000
      8449      2817  TIP3      OH2           -15.7861487078       35.6192036235      -17.3302641586  W2        2817            0.0000000000
      8450      2817  TIP3      H1            -15.5691187078       34.6874436235      -17.3612941586  W2        2817            0.0000000000
      8451      2817  TIP3      H2            -15.5397987078       35.8937036235      -16.4469841586  W2        2817            0.0000000000
      8452      2818  TIP3      OH2            -9.9246887078       34.0707036235      -30.1210441586  W2        2818            0.0000000000
      8453      2818  TIP3      H1             -9.6857087078       33.3225136235      -30.6681541586  W2        2818            0.0000000000
      8454      2818  TIP3      H2            -10.1935587078       33.6828736235      -29.2882641586  W2        2818            0.0000000000
      8455      2819  TIP3      OH2           -10.9876287078       33.6410836235      -27.6647841586  W2        2819            0.0000000000
      8456      2819  TIP3      H1            -10.8408287078       33.1210636235      -26.8746941586  W2        2819            0.0000000000
      8457      2819  TIP3      H2            -10.9904587078       34.5478436235      -27.3581941586  W2        2819            0.0000000000
      8458      2820  TIP3      OH2           -14.5345187078       30.8934136235      -27.1542441586  W2        2820            0.0000000000
      8459      2820  TIP3      H1            -15.2205887078       31.2456636235      -26.5872741586  W2        2820            0.0000000000
      8460      2820  TIP3      H2            -14.0117287078       31.6563736235      -27.4008141586  W2        2820            0.0000000000
      8461      2821  TIP3      OH2            -6.7030087078       23.5557936235      -16.8753441586  W2        2821            0.0000000000
      8462      2821  TIP3      H1             -6.0042187078       23.6296636235      -16.2253741586  W2        2821            0.0000000000
      8463      2821  TIP3      H2             -7.0838687078       22.6912936235      -16.7210541586  W2        2821            0.0000000000
      8464      2822  TIP3      OH2            -5.9185187078       23.2079636235      -25.7781141586  W2        2822            0.0000000000
      8465      2822  TIP3      H1             -5.6986887078       23.6795036235      -26.5815741586  W2        2822            0.0000000000
      8466      2822  TIP3      H2             -5.3601187078       23.6022236235      -25.1080541586  W2        2822            0.0000000000
      8467      2823  TIP3      OH2            -8.2499087078       35.3384436235      -26.9153641586  W2        2823            0.0000000000
      8468      2823  TIP3      H1             -9.0662987078       35.8354136235      -26.8629341586  W2        2823            0.0000000000
      8469      2823  TIP3      H2             -7.7202787078       35.8137936235      -27.5554841586  W2        2823            0.0000000000
      8470      2824  TIP3      OH2            -8.7185287078       24.9358436235      -24.9432741586  W2        2824            0.0000000000
      8471      2824  TIP3      H1             -7.9062687078       25.4401636235      -24.8971041586  W2        2824            0.0000000000
      8472      2824  TIP3      H2             -8.9632287078       24.7908136235      -24.0293141586  W2        2824            0.0000000000
      8473      2825  TIP3      OH2            -8.1828887078       25.9221136235      -15.7586141586  W2        2825            0.0000000000
      8474      2825  TIP3      H1             -8.0638587078       26.4956536235      -15.0015741586  W2        2825            0.0000000000
      8475      2825  TIP3      H2             -7.5274287078       25.2340536235      -15.6438341586  W2        2825            0.0000000000
      8476      2826  TIP3      OH2            -7.8348587078       22.0171436235      -24.0051641586  W2        2826            0.0000000000
      8477      2826  TIP3      H1             -8.1815087078       22.6342036235      -23.3607341586  W2        2826            0.0000000000
      8478      2826  TIP3      H2             -7.1761687078       22.5177136235      -24.4866141586  W2        2826            0.0000000000
      8479      2827  TIP3      OH2           -10.9115987078       36.3821636235      -26.9336741586  W2        2827            0.0000000000
      8480      2827  TIP3      H1            -10.7507287078       37.1819136235      -27.4344141586  W2        2827            0.0000000000
      8481      2827  TIP3      H2            -11.1088187078       36.6887636235      -26.0486141586  W2        2827            0.0000000000
      8482      2828  TIP3      OH2           -12.1771587078       23.0800836235      -27.3179141586  W2        2828            0.0000000000
      8483      2828  TIP3      H1            -12.2606787078       23.9683936235      -26.9712741586  W2        2828            0.0000000000
      8484      2828  TIP3      H2            -11.2871287078       22.8147536235      -27.0862341586  W2        2828            0.0000000000
      8485      2829  TIP3      OH2            -1.9783087078       23.8291436235      -14.9236441586  W2        2829            0.0000000000
      8486      2829  TIP3      H1             -2.8947287078       24.0913136235      -15.0112741586  W2        2829            0.0000000000
      8487      2829  TIP3      H2             -1.6428087078       23.8260436235      -15.8201141586  W2        2829            0.0000000000
      8488      2830  TIP3      OH2            -3.3762087078       27.5792436235      -20.8279141586  W2        2830            0.0000000000
      8489      2830  TIP3      H1             -4.1737687078       27.1642636235      -21.1564141586  W2        2830            0.0000000000
      8490      2830  TIP3      H2             -2.9310987078       26.8886136235      -20.3368641586  W2        2830            0.0000000000
      8491      2831  TIP3      OH2           -13.9186287078       33.5073036235      -28.2574641586  W2        2831            0.0000000000
      8492      2831  TIP3      H1            -13.3264787078       34.2067836235      -27.9812241586  W2        2831            0.0000000000
      8493      2831  TIP3      H2            -13.4593287078       33.0742536235      -28.9770041586  W2        2831            0.0000000000
      8494      2832  TIP3      OH2           -15.6027087078       26.1716036235      -29.1415241586  W2        2832            0.0000000000
      8495      2832  TIP3      H1            -15.6474487078       27.1109136235      -28.9628241586  W2        2832            0.0000000000
      8496      2832  TIP3      H2            -16.4903887078       25.9360936235      -29.4113141586  W2        2832            0.0000000000
      8497      2833  TIP3      OH2           -14.7945087078       20.9532636235      -20.4684241586  W2        2833            0.0000000000
      8498      2833  TIP3      H1            -15.0235287078       21.0125136235      -21.3959241586  W2        2833            0.0000000000
      8499      2833  TIP3      H2            -15.2371687078       20.1618136235      -20.1620141586  W2        2833            0.0000000000
      8500      2834  TIP3      OH2           -15.8641787078       34.8939736235      -24.3078441586  W2        2834            0.0000000000
      8501      2834  TIP3      H1            -16.6963187078       35.3662436235      -24.2807041586  W2        2834            0.0000000000
      8502      2834  TIP3      H2            -15.3183487078       35.4037336235      -24.9065341586  W2        2834            0.0000000000
      8503      2835  TIP3      OH2           -11.9784687078       36.4257836235      -11.3576241586  W2        2835            0.0000000000
      8504      2835  TIP3      H1            -11.2107487078       35.9668636235      -11.0167041586  W2        2835            0.0000000000
      8505      2835  TIP3      H2            -11.9998487078       36.1997636235      -12.2875041586  W2        2835            0.0000000000
      8506      2836  TIP3      OH2            -7.8865087078       35.9338436235      -29.9824441586  W2        2836            0.0000000000
      8507      2836  TIP3      H1             -8.5304087078       35.3027036235      -29.6610741586  W2        2836            0.0000000000
      8508      2836  TIP3      H2             -7.1246787078       35.4026436235      -30.2140941586  W2        2836            0.0000000000
      8509      2837  TIP3      OH2            -5.4015987078       34.8058936235      -12.6284741586  W2        2837            0.0000000000
      8510      2837  TIP3      H1             -5.7526487078       33.9491936235      -12.3854341586  W2        2837            0.0000000000
      8511      2837  TIP3      H2             -4.6752787078       34.9485636235      -12.0215741586  W2        2837            0.0000000000
      8512      2838  TIP3      OH2            -3.2822187078       35.7508336235      -29.7486441586  W2        2838            0.0000000000
      8513      2838  TIP3      H1             -2.9991787078       34.9563536235      -29.2959541586  W2        2838            0.0000000000
      8514      2838  TIP3      H2             -2.5424287078       35.9839336235      -30.3095341586  W2        2838            0.0000000000
      8515      2839  TIP3      OH2           -16.6688587078       31.3167536235      -12.0236141586  W2        2839            0.0000000000
      8516      2839  TIP3      H1            -16.5248087078       30.4148236235      -12.3099441586  W2        2839            0.0000000000
      8517      2839  TIP3      H2            -17.4411187078       31.6029636235      -12.5113841586  W2        2839            0.0000000000
      8518      2840  TIP3      OH2           -12.3274887078       31.6603236235      -29.8911541586  W2        2840            0.0000000000
      8519      2840  TIP3      H1            -12.2630787078       30.8662836235      -29.3605141586  W2        2840            0.0000000000
      8520      2840  TIP3      H2            -11.6745687078       31.5416036235      -30.5809541586  W2        2840            0.0000000000
      8521      2841  TIP3      OH2           -10.0132487078       31.2865636235      -12.5909741586  W2        2841            0.0000000000
      8522      2841  TIP3      H1            -10.3418687078       31.5573736235      -13.4482341586  W2        2841            0.0000000000
      8523      2841  TIP3      H2             -9.8614287078       30.3455436235      -12.6784741586  W2        2841            0.0000000000
      8524      2842  TIP3      OH2            -6.9751487078       32.7074936235      -30.1553541586  W2        2842            0.0000000000
      8525      2842  TIP3      H1             -7.2437387078       32.8877036235      -29.2544641586  W2        2842            0.0000000000
      8526      2842  TIP3      H2             -7.1815887078       31.7821136235      -30.2867741586  W2        2842            0.0000000000
      8527      2843  TIP3      OH2            -4.2787287078       31.2022936235      -15.2077441586  W2        2843            0.0000000000
      8528      2843  TIP3      H1             -3.5332487078       31.7906636235      -15.3273441586  W2        2843            0.0000000000
      8529      2843  TIP3      H2             -5.0360487078       31.7842636235      -15.1444341586  W2        2843            0.0000000000
      8530      2844  TIP3      OH2           -15.8362087078       28.5170836235      -12.6036841586  W2        2844            0.0000000000
      8531      2844  TIP3      H1            -15.4280887078       27.6597436235      -12.7246241586  W2        2844            0.0000000000
      8532      2844  TIP3      H2            -16.0964487078       28.5312136235      -11.6826541586  W2        2844            0.0000000000
      8533      2845  TIP3      OH2           -11.1781087078       29.6329436235      -27.5853541586  W2        2845            0.0000000000
      8534      2845  TIP3      H1            -11.6379087078       29.1487736235      -26.8995041586  W2        2845            0.0000000000
      8535      2845  TIP3      H2            -10.9232387078       28.9644836235      -28.2213041586  W2        2845            0.0000000000
      8536      2846  TIP3      OH2           -11.8891787078       27.5256536235      -15.2293941586  W2        2846            0.0000000000
      8537      2846  TIP3      H1            -12.5075687078       28.2003136235      -14.9489241586  W2        2846            0.0000000000
      8538      2846  TIP3      H2            -11.5450587078       27.8470436235      -16.0627741586  W2        2846            0.0000000000
      8539      2847  TIP3      OH2           -10.1070687078       27.8761236235      -29.3230341586  W2        2847            0.0000000000
      8540      2847  TIP3      H1            -10.2875687078       27.7212436235      -30.2502041586  W2        2847            0.0000000000
      8541      2847  TIP3      H2             -9.1570187078       27.9839936235      -29.2782441586  W2        2847            0.0000000000
      8542      2848  TIP3      OH2            -6.8693587078       29.9971836235      -11.9519141586  W2        2848            0.0000000000
      8543      2848  TIP3      H1             -5.9162387078       30.0810936235      -11.9793141586  W2        2848            0.0000000000
      8544      2848  TIP3      H2             -7.0298987078       29.2853636235      -11.3324241586  W2        2848            0.0000000000
      8545      2849  TIP3      OH2            -0.7172387078       30.2305436235      -29.8772241586  W2        2849            0.0000000000
      8546      2849  TIP3      H1             -0.9907587078       29.8060936235      -30.6903941586  W2        2849            0.0000000000
      8547      2849  TIP3      H2             -0.6778287078       31.1619936235      -30.0941841586  W2        2849            0.0000000000
      8548      2850  TIP3      OH2           -11.5498087078       24.8807336235      -14.1470841586  W2        2850            0.0000000000
      8549      2850  TIP3      H1            -11.3997187078       24.1518636235      -14.7491141586  W2        2850            0.0000000000
      8550      2850  TIP3      H2            -11.5475687078       25.6579036235      -14.7058641586  W2        2850            0.0000000000
      8551      2851  TIP3      OH2           -11.1372387078       23.2503136235      -16.6543441586  W2        2851            0.0000000000
      8552      2851  TIP3      H1            -10.6014887078       23.7019836235      -17.3064141586  W2        2851            0.0000000000
      8553      2851  TIP3      H2            -11.9892787078       23.1422936235      -17.0769341586  W2        2851            0.0000000000
      8554      2852  TIP3      OH2            -9.5553987078       28.6899336235      -16.4148241586  W2        2852            0.0000000000
      8555      2852  TIP3      H1             -8.8049187078       28.5336836235      -16.9880441586  W2        2852            0.0000000000
      8556      2852  TIP3      H2             -9.8945687078       29.5415936235      -16.6902741586  W2        2852            0.0000000000
      8557      2853  TIP3      OH2            -5.1397787078       26.5051136235      -11.3862941586  W2        2853            0.0000000000
      8558      2853  TIP3      H1             -4.9476487078       25.5740536235      -11.4978441586  W2        2853            0.0000000000
      8559      2853  TIP3      H2             -4.2821487078       26.9300636235      -11.3967541586  W2        2853            0.0000000000
      8560      2854  TIP3      OH2            -3.8230587078       29.2936336235      -13.3090241586  W2        2854            0.0000000000
      8561      2854  TIP3      H1             -4.1045587078       30.0030936235      -13.8866441586  W2        2854            0.0000000000
      8562      2854  TIP3      H2             -2.8806287078       29.2209336235      -13.4599041586  W2        2854            0.0000000000
      8563      2855  TIP3      OH2           -13.0711787078       26.0790836235      -12.2355241586  W2        2855            0.0000000000
      8564      2855  TIP3      H1            -13.8382787078       25.5465636235      -12.4457641586  W2        2855            0.0000000000
      8565      2855  TIP3      H2            -12.3922787078       25.7691236235      -12.8348941586  W2        2855            0.0000000000
      8566      2856  TIP3      OH2           -10.3316887078       20.7068836235      -16.2229841586  W2        2856            0.0000000000
      8567      2856  TIP3      H1            -10.4297287078       21.6532036235      -16.3283641586  W2        2856            0.0000000000
      8568      2856  TIP3      H2            -11.0740687078       20.3342636235      -16.6986341586  W2        2856            0.0000000000
      8569      2857  TIP3      OH2            -9.0676387078       25.0284236235      -12.6591441586  W2        2857            0.0000000000
      8570      2857  TIP3      H1             -9.3030987078       24.8090936235      -11.7576541586  W2        2857            0.0000000000
      8571      2857  TIP3      H2             -9.8509487078       24.8215436235      -13.1688941586  W2        2857            0.0000000000
      8572      2858  TIP3      OH2            -6.3519787078       24.1557736235      -13.5837941586  W2        2858            0.0000000000
      8573      2858  TIP3      H1             -7.2994387078       24.1877436235      -13.4514641586  W2        2858            0.0000000000
      8574      2858  TIP3      H2             -6.0393087078       23.5304836235      -12.9299741586  W2        2858            0.0000000000
      8575      2859  TIP3      OH2            -4.7178287078       22.7898836235      -11.5786041586  W2        2859            0.0000000000
      8576      2859  TIP3      H1             -4.8146487078       21.8376136235      -11.5844141586  W2        2859            0.0000000000
      8577      2859  TIP3      H2             -5.0395187078       23.0585636235      -10.7180541586  W2        2859            0.0000000000
      8578      2860  TIP3      OH2           -14.8908987078       23.9994636235      -12.5310541586  W2        2860            0.0000000000
      8579      2860  TIP3      H1            -14.6791587078       23.2930736235      -13.1413041586  W2        2860            0.0000000000
      8580      2860  TIP3      H2            -15.0021487078       23.5620636235      -11.6869341586  W2        2860            0.0000000000
      8581      2861  TIP3      OH2           -10.1098787078       20.0006236235      -13.5517041586  W2        2861            0.0000000000
      8582      2861  TIP3      H1             -9.3980387078       19.3608436235      -13.5657941586  W2        2861            0.0000000000
      8583      2861  TIP3      H2            -10.2108387078       20.2674536235      -14.4653941586  W2        2861            0.0000000000
      8584      2862  TIP3      OH2            -9.7561287078       21.6834636235      -11.4980741586  W2        2862            0.0000000000
      8585      2862  TIP3      H1             -9.8879087078       21.2078436235      -12.3182241586  W2        2862            0.0000000000
      8586      2862  TIP3      H2            -10.3553887078       22.4278236235      -11.5533641586  W2        2862            0.0000000000
      8587      2863  TIP3      OH2           -16.6414087078       33.2028736235      -28.8388641586  W2        2863            0.0000000000
      8588      2863  TIP3      H1            -15.7274887078       33.2817636235      -28.5654741586  W2        2863            0.0000000000
      8589      2863  TIP3      H2            -16.6340987078       32.5158336235      -29.5053041586  W2        2863            0.0000000000
      8590      2864  TIP3      OH2           -17.1224287078       36.6764236235      -21.9568541586  W2        2864            0.0000000000
      8591      2864  TIP3      H1            -17.4567487078       35.7961536235      -21.7848341586  W2        2864            0.0000000000
      8592      2864  TIP3      H2            -16.9001887078       37.0219236235      -21.0922941586  W2        2864            0.0000000000
      8593      2865  TIP3      OH2            -1.5599287078       32.8429836235      -11.4164341586  W2        2865            0.0000000000
      8594      2865  TIP3      H1             -2.4258187078       32.7379536235      -11.0222041586  W2        2865            0.0000000000
      8595      2865  TIP3      H2             -1.1833387078       33.6013136235      -10.9699641586  W2        2865            0.0000000000
      8596      2866  TIP3      OH2            -0.2589587078       31.0993536235      -25.9021841586  W2        2866            0.0000000000
      8597      2866  TIP3      H1              0.5911812922       31.5204436235      -25.7750241586  W2        2866            0.0000000000
      8598      2866  TIP3      H2             -0.2534487078       30.3593636235      -25.2950441586  W2        2866            0.0000000000
      8599      2867  TIP3      OH2             0.1356012922       29.1530936235      -24.0786141586  W2        2867            0.0000000000
      8600      2867  TIP3      H1             -0.5909387078       28.6733536235      -23.6808541586  W2        2867            0.0000000000
      8601      2867  TIP3      H2              0.7169312922       29.3585636235      -23.3464541586  W2        2867            0.0000000000
      8602      2868  TIP3      OH2            -0.1052787078       31.9378436235      -19.1308541586  W2        2868            0.0000000000
      8603      2868  TIP3      H1              0.7281412922       31.5598436235      -19.4114941586  W2        2868            0.0000000000
      8604      2868  TIP3      H2              0.0067512922       32.8809636235      -19.2499441586  W2        2868            0.0000000000
      8605      2869  TIP3      OH2            -1.6190487078       34.8155936235      -16.8240141586  W2        2869            0.0000000000
      8606      2869  TIP3      H1             -2.2665187078       35.1407436235      -16.1984941586  W2        2869            0.0000000000
      8607      2869  TIP3      H2             -2.1366487078       34.3753636235      -17.4981841586  W2        2869            0.0000000000
      8608      2870  TIP3      OH2             0.4039112922       29.0539436235      -27.6874841586  W2        2870            0.0000000000
      8609      2870  TIP3      H1             -0.1179787078       29.4103536235      -28.4063941586  W2        2870            0.0000000000
      8610      2870  TIP3      H2              0.3708312922       29.7287236235      -27.0093941586  W2        2870            0.0000000000
      8611      2871  TIP3      OH2            -1.2471887078       26.2935036235      -29.1367741586  W2        2871            0.0000000000
      8612      2871  TIP3      H1             -1.1507487078       26.9602036235      -29.8168041586  W2        2871            0.0000000000
      8613      2871  TIP3      H2             -1.3872287078       25.4781336235      -29.6182241586  W2        2871            0.0000000000
      8614      2872  TIP3      OH2            -2.0777187078       27.6737436235      -23.5157441586  W2        2872            0.0000000000
      8615      2872  TIP3      H1             -2.2278387078       26.7286036235      -23.5359641586  W2        2872            0.0000000000
      8616      2872  TIP3      H2             -2.4312687078       27.9548836235      -22.6718341586  W2        2872            0.0000000000
      8617      2873  TIP3      OH2           -17.0424787078       29.7519636235      -19.5053641586  W2        2873            0.0000000000
      8618      2873  TIP3      H1            -16.8581887078       29.6701336235      -20.4410741586  W2        2873            0.0000000000
      8619      2873  TIP3      H2            -16.1931887078       29.6276636235      -19.0817241586  W2        2873            0.0000000000
      8620      2874  TIP3      OH2            -1.2214287078       29.6440736235      -13.8769141586  W2        2874            0.0000000000
      8621      2874  TIP3      H1             -0.6386987078       28.9093036235      -13.6851941586  W2        2874            0.0000000000
      8622      2874  TIP3      H2             -0.6574987078       30.4161036235      -13.8303341586  W2        2874            0.0000000000
      8623      2875  TIP3      OH2             0.2752812922       27.5466536235      -13.1923741586  W2        2875            0.0000000000
      8624      2875  TIP3      H1             -0.5880487078       27.1678636235      -13.3579041586  W2        2875            0.0000000000
      8625      2875  TIP3      H2              0.8796512922       26.8081336235      -13.2667941586  W2        2875            0.0000000000
      8626      2876  TIP3      OH2            -1.9998087078       23.7014836235      -30.0192241586  W2        2876            0.0000000000
      8627      2876  TIP3      H1             -1.3892287078       23.3301636235      -29.3824041586  W2        2876            0.0000000000
      8628      2876  TIP3      H2             -2.8366587078       23.2801736235      -29.8232241586  W2        2876            0.0000000000
      8629      2877  TIP3      OH2            -2.3672387078       25.2563236235      -25.0532341586  W2        2877            0.0000000000
      8630      2877  TIP3      H1             -2.0875287078       24.3493636235      -24.9290641586  W2        2877            0.0000000000
      8631      2877  TIP3      H2             -1.6080687078       25.6904736235      -25.4423141586  W2        2877            0.0000000000
      8632      2878  TIP3      OH2            -1.7554087078       25.8380636235      -19.6173441586  W2        2878            0.0000000000
      8633      2878  TIP3      H1             -0.8226087078       26.0500536235      -19.6517441586  W2        2878            0.0000000000
      8634      2878  TIP3      H2             -1.9906587078       25.9392736235      -18.6950441586  W2        2878            0.0000000000
      8635      2879  TIP3      OH2            -1.7262187078       26.5745936235      -16.8414041586  W2        2879            0.0000000000
      8636      2879  TIP3      H1             -2.5690887078       26.8426336235      -16.4754241586  W2        2879            0.0000000000
      8637      2879  TIP3      H2             -1.2837887078       27.3967836235      -17.0522941586  W2        2879            0.0000000000
      8638      2880  TIP3      OH2           -17.4449987078       25.0224636235      -13.3644841586  W2        2880            0.0000000000
      8639      2880  TIP3      H1            -16.5255087078       24.9002936235      -13.1281741586  W2        2880            0.0000000000
      8640      2880  TIP3      H2            -17.8945487078       24.2724336235      -12.9751341586  W2        2880            0.0000000000
      8641      2881  TIP3      OH2             0.5569412922       20.5546136235      -11.4879041586  W2        2881            0.0000000000
      8642      2881  TIP3      H1              0.9066412922       19.9009636235      -12.0934341586  W2        2881            0.0000000000
      8643      2881  TIP3      H2              0.7038912922       21.3920236235      -11.9276441586  W2        2881            0.0000000000
      8644      2882  TIP3      OH2            -1.7537587078       22.5192536235      -25.0050341586  W2        2882            0.0000000000
      8645      2882  TIP3      H1             -1.5712587078       22.0704036235      -24.1795341586  W2        2882            0.0000000000
      8646      2882  TIP3      H2             -2.3534687078       21.9346936235      -25.4685741586  W2        2882            0.0000000000
      8647      2883  TIP3      OH2           -16.2237487078       23.3346236235      -20.4731941586  W2        2883            0.0000000000
      8648      2883  TIP3      H1            -15.7785887078       22.5428736235      -20.1712241586  W2        2883            0.0000000000
      8649      2883  TIP3      H2            -15.7574487078       24.0511436235      -20.0426341586  W2        2883            0.0000000000
      8650      2884  TIP3      OH2           -17.9197187078       26.3339236235      -19.4041741586  W2        2884            0.0000000000
      8651      2884  TIP3      H1            -17.4277387078       26.1129736235      -20.1949741586  W2        2884            0.0000000000
      8652      2884  TIP3      H2            -17.5576287078       27.1742636235      -19.1232241586  W2        2884            0.0000000000
      8653      2885  TIP3      OH2             0.0766612922       22.6640736235      -13.1387741586  W2        2885            0.0000000000
      8654      2885  TIP3      H1             -0.8407687078       22.9347836235      -13.1744241586  W2        2885            0.0000000000
      8655      2885  TIP3      H2              0.1996012922       22.1289136235      -13.9228041586  W2        2885            0.0000000000
      8656      2886  TIP3      OH2             0.1128612922       22.5870636235      -28.4770041586  W2        2886            0.0000000000
      8657      2886  TIP3      H1              0.5251212922       21.8656336235      -28.9522041586  W2        2886            0.0000000000
      8658      2886  TIP3      H2              0.7945112922       23.2565236235      -28.4185741586  W2        2886            0.0000000000
      8659      2887  TIP3      OH2           -17.6060687078       22.5918336235      -25.3499341586  W2        2887            0.0000000000
      8660      2887  TIP3      H1            -18.5312287078       22.8004936235      -25.4793841586  W2        2887            0.0000000000
      8661      2887  TIP3      H2            -17.1520787078       23.0759136235      -26.0397041586  W2        2887            0.0000000000
      8662      2888  TIP3      OH2           -17.6425287078       21.3297336235      -17.0056841586  W2        2888            0.0000000000
      8663      2888  TIP3      H1            -18.3074787078       21.0837636235      -16.3625941586  W2        2888            0.0000000000
      8664      2888  TIP3      H2            -18.0853987078       21.9517736235      -17.5828841586  W2        2888            0.0000000000
      8665      2889  TIP3      OH2           -15.4505987078       34.5051436235      -12.8611041586  W2        2889            0.0000000000
      8666      2889  TIP3      H1            -16.2713487078       34.6797936235      -13.3216341586  W2        2889            0.0000000000
      8667      2889  TIP3      H2            -15.7028187078       34.4316136235      -11.9406641586  W2        2889            0.0000000000
      8668      2890  TIP3      OH2           -12.4963087078       35.4792636235      -16.6027041586  W2        2890            0.0000000000
      8669      2890  TIP3      H1            -12.9211987078       36.2891136235      -16.8852441586  W2        2890            0.0000000000
      8670      2890  TIP3      H2            -11.5920287078       35.5646736235      -16.9047241586  W2        2890            0.0000000000
      8671      2891  TIP3      OH2            -0.9227487078       20.7537036235      -15.3196941586  W2        2891            0.0000000000
      8672      2891  TIP3      H1             -1.7353987078       21.0787336235      -15.7072241586  W2        2891            0.0000000000
      8673      2891  TIP3      H2             -0.6898987078       19.9935536235      -15.8527841586  W2        2891            0.0000000000
      8674      2892  TIP3      OH2           -13.5385187078       36.0687736235      -20.9900041586  W2        2892            0.0000000000
      8675      2892  TIP3      H1            -13.7574487078       35.1525136235      -20.8204041586  W2        2892            0.0000000000
      8676      2892  TIP3      H2            -12.7142987078       36.2088136235      -20.5238641586  W2        2892            0.0000000000
      8677      2893  TIP3      OH2           -11.0012687078       36.5387036235      -20.1412041586  W2        2893            0.0000000000
      8678      2893  TIP3      H1            -10.7886987078       35.6506036235      -20.4281141586  W2        2893            0.0000000000
      8679      2893  TIP3      H2            -10.9367587078       36.5044736235      -19.1868041586  W2        2893            0.0000000000
      8680      2894  TIP3      OH2            -7.4928987078       22.2027636235      -20.9968741586  W2        2894            0.0000000000
      8681      2894  TIP3      H1             -8.1672187078       21.5733236235      -20.7412941586  W2        2894            0.0000000000
      8682      2894  TIP3      H2             -6.9289787078       21.7186536235      -21.6000841586  W2        2894            0.0000000000
      8683      2895  TIP3      OH2            -2.3501787078       20.3101636235      -20.8841641586  W2        2895            0.0000000000
      8684      2895  TIP3      H1             -1.7464187078       20.8577036235      -21.3860641586  W2        2895            0.0000000000
      8685      2895  TIP3      H2             -3.2199787078       20.6292036235      -21.1247541586  W2        2895            0.0000000000
      8686      2896  TIP3      OH2            -0.6231387078       21.4490336235      -22.5510741586  W2        2896            0.0000000000
      8687      2896  TIP3      H1             -0.0113887078       20.9346036235      -23.0777141586  W2        2896            0.0000000000
      8688      2896  TIP3      H2             -0.2407987078       22.3262436235      -22.5276341586  W2        2896            0.0000000000
      8689      2897  TIP3      OH2           -15.1661487078       20.8367936235      -23.1748841586  W2        2897            0.0000000000
      8690      2897  TIP3      H1            -15.9431687078       20.6022836235      -23.6822941586  W2        2897            0.0000000000
      8691      2897  TIP3      H2            -14.6357887078       20.0400036235      -23.1660841586  W2        2897            0.0000000000
      8692      2898  TIP3      OH2           -16.3298087078       20.6346036235      -27.3712741586  W2        2898            0.0000000000
      8693      2898  TIP3      H1            -15.8907387078       21.2456536235      -27.9629241586  W2        2898            0.0000000000
      8694      2898  TIP3      H2            -16.9635687078       21.1730136235      -26.8972741586  W2        2898            0.0000000000
      8695      2899  TIP3      OH2           -10.5868887078       20.7635036235      -23.3615741586  W2        2899            0.0000000000
      8696      2899  TIP3      H1             -9.7125487078       21.1519336235      -23.3911441586  W2        2899            0.0000000000
      8697      2899  TIP3      H2            -10.7228087078       20.5482836235      -22.4388541586  W2        2899            0.0000000000
      8698      2900  TIP3      OH2            -5.0300487078       20.7934836235      -21.7124041586  W2        2900            0.0000000000
      8699      2900  TIP3      H1             -4.9538887078       20.8886436235      -22.6618041586  W2        2900            0.0000000000
      8700      2900  TIP3      H2             -5.3051287078       19.8857736235      -21.5834941586  W2        2900            0.0000000000
      8701      2901  TIP3      OH2            -3.6767887078       20.8192636235      -26.0199041586  W2        2901            0.0000000000
      8702      2901  TIP3      H1             -4.3796787078       21.4341836235      -26.2297641586  W2        2901            0.0000000000
      8703      2901  TIP3      H2             -4.1216487078       19.9819336235      -25.8888141586  W2        2901            0.0000000000
      8704      2902  TIP3      OH2           -16.4288587078       36.5828236235      -26.4737641586  W2        2902            0.0000000000
      8705      2902  TIP3      H1            -17.1138687078       36.5447136235      -27.1412541586  W2        2902            0.0000000000
      8706      2902  TIP3      H2            -16.4251387078       37.4955836235      -26.1855541586  W2        2902            0.0000000000
      8707      2903  TIP3      OH2           -14.4688987078       22.5507536235      -28.9288641586  W2        2903            0.0000000000
      8708      2903  TIP3      H1            -13.9775587078       21.9209936235      -29.4563141586  W2        2903            0.0000000000
      8709      2903  TIP3      H2            -13.8452687078       22.8466936235      -28.2657441586  W2        2903            0.0000000000
      8710      2904  TIP3      OH2            -9.4428887078       22.8439036235      -26.4718141586  W2        2904            0.0000000000
      8711      2904  TIP3      H1             -9.2647587078       22.1972236235      -25.7889541586  W2        2904            0.0000000000
      8712      2904  TIP3      H2             -9.4962687078       23.6776736235      -26.0047041586  W2        2904            0.0000000000
      8713      2905  TIP3      OH2           -15.2083487078       21.3509836235      -13.6572641586  W2        2905            0.0000000000
      8714      2905  TIP3      H1            -15.5745287078       20.5852436235      -13.2147941586  W2        2905            0.0000000000
      8715      2905  TIP3      H2            -14.2954987078       21.3800036235      -13.3707541586  W2        2905            0.0000000000
      8716      2906  TIP3      OH2           -13.2352687078       20.7014236235      -12.1215541586  W2        2906            0.0000000000
      8717      2906  TIP3      H1            -12.3369087078       20.4274436235      -12.3062141586  W2        2906            0.0000000000
      8718      2906  TIP3      H2            -13.6219587078       19.9590236235      -11.6572941586  W2        2906            0.0000000000
      8719      2907  TIP3      OH2            -4.8140387078       20.0339536235      -11.9392741586  W2        2907            0.0000000000
      8720      2907  TIP3      H1             -4.7373187078       19.6080236235      -11.0855041586  W2        2907            0.0000000000
      8721      2907  TIP3      H2             -3.9203787078       20.0474236235      -12.2819241586  W2        2907            0.0000000000
      8722      2908  TIP3      OH2            -1.6379287078       36.1065836235      -13.2468541586  W2        2908            0.0000000000
      8723      2908  TIP3      H1             -2.4197387078       35.9203836235      -13.7667941586  W2        2908            0.0000000000
      8724      2908  TIP3      H2             -1.7099387078       37.0360136235      -13.0296041586  W2        2908            0.0000000000
      8725      2909  TIP3      OH2            12.7681112922       29.9930236235      -23.2161341586  W2        2909            0.0000000000
      8726      2909  TIP3      H1             12.8572212922       30.9368436235      -23.3484241586  W2        2909            0.0000000000
      8727      2909  TIP3      H2             12.1298712922       29.7176636235      -23.8741941586  W2        2909            0.0000000000
      8728      2910  TIP3      OH2            11.7012412922       29.2480936235      -19.7973141586  W2        2910            0.0000000000
      8729      2910  TIP3      H1             11.6629912922       28.6017236235      -19.0923541586  W2        2910            0.0000000000
      8730      2910  TIP3      H2             11.3788912922       28.7815336235      -20.5684441586  W2        2910            0.0000000000
      8731      2911  TIP3      OH2             4.0697412922       28.8623036235      -18.2043241586  W2        2911            0.0000000000
      8732      2911  TIP3      H1              4.1109512922       28.2366336235      -17.4810841586  W2        2911            0.0000000000
      8733      2911  TIP3      H2              4.7725112922       29.4861636235      -18.0222841586  W2        2911            0.0000000000
      8734      2912  TIP3      OH2            15.4072612922       32.1871336235      -21.4958041586  W2        2912            0.0000000000
      8735      2912  TIP3      H1             14.9665312922       31.4667336235      -21.0452441586  W2        2912            0.0000000000
      8736      2912  TIP3      H2             15.3942312922       32.9078536235      -20.8660341586  W2        2912            0.0000000000
      8737      2913  TIP3      OH2             4.9930512922       33.3121936235      -19.6694141586  W2        2913            0.0000000000
      8738      2913  TIP3      H1              4.6235712922       32.5102436235      -20.0389841586  W2        2913            0.0000000000
      8739      2913  TIP3      H2              5.9341612922       33.1436836235      -19.6230741586  W2        2913            0.0000000000
      8740      2914  TIP3      OH2             1.6031012922       26.9724536235      -24.2765341586  W2        2914            0.0000000000
      8741      2914  TIP3      H1              1.1554412922       27.8183236235      -24.2948841586  W2        2914            0.0000000000
      8742      2914  TIP3      H2              1.0422212922       26.3928736235      -24.7920241586  W2        2914            0.0000000000
      8743      2915  TIP3      OH2             2.3137112922       29.1344136235      -22.1507341586  W2        2915            0.0000000000
      8744      2915  TIP3      H1              2.5270612922       28.3645736235      -21.6234341586  W2        2915            0.0000000000
      8745      2915  TIP3      H2              3.0514712922       29.2240836235      -22.7539741586  W2        2915            0.0000000000
      8746      2916  TIP3      OH2            10.0906812922       31.6802336235      -19.3912141586  W2        2916            0.0000000000
      8747      2916  TIP3      H1             10.3944712922       30.9943736235      -19.9858041586  W2        2916            0.0000000000
      8748      2916  TIP3      H2             10.8120812922       31.7991036235      -18.7734141586  W2        2916            0.0000000000
      8749      2917  TIP3      OH2            18.7536612922       23.2817636235      -18.5305941586  W2        2917            0.0000000000
      8750      2917  TIP3      H1             18.8028812922       23.8918836235      -17.7946841586  W2        2917            0.0000000000
      8751      2917  TIP3      H2             19.1791712922       23.7428536235      -19.2534841586  W2        2917            0.0000000000
      8752      2918  TIP3      OH2            13.2313812922       26.0744736235      -19.0637341586  W2        2918            0.0000000000
      8753      2918  TIP3      H1             13.3739712922       25.1281736235      -19.0435741586  W2        2918            0.0000000000
      8754      2918  TIP3      H2             13.1252812922       26.2814536235      -19.9922441586  W2        2918            0.0000000000
      8755      2919  TIP3      OH2             6.3862112922       24.1761136235      -21.7912541586  W2        2919            0.0000000000
      8756      2919  TIP3      H1              6.4293212922       25.0359636235      -22.2096241586  W2        2919            0.0000000000
      8757      2919  TIP3      H2              5.9286212922       23.6235836235      -22.4249341586  W2        2919            0.0000000000
      8758      2920  TIP3      OH2            14.1084812922       24.3066736235      -23.3904241586  W2        2920            0.0000000000
      8759      2920  TIP3      H1             14.7549112922       23.9779936235      -22.7656641586  W2        2920            0.0000000000
      8760      2920  TIP3      H2             14.6184212922       24.8245736235      -24.0132841586  W2        2920            0.0000000000
      8761      2921  TIP3      OH2             3.0063612922       26.5726936235      -21.0291141586  W2        2921            0.0000000000
      8762      2921  TIP3      H1              3.6600212922       26.0228636235      -20.5971041586  W2        2921            0.0000000000
      8763      2921  TIP3      H2              3.0302912922       26.2985936235      -21.9459141586  W2        2921            0.0000000000
      8764      2922  TIP3      OH2             8.1628112922       28.1228236235      -21.8139641586  W2        2922            0.0000000000
      8765      2922  TIP3      H1              8.7789112922       27.5963636235      -21.3045641586  W2        2922            0.0000000000
      8766      2922  TIP3      H2              7.5766912922       27.4826936235      -22.2176041586  W2        2922            0.0000000000
      8767      2923  TIP3      OH2            19.1451212922       24.7596836235      -16.2946141586  W2        2923            0.0000000000
      8768      2923  TIP3      H1             18.4565812922       25.4177536235      -16.3899541586  W2        2923            0.0000000000
      8769      2923  TIP3      H2             19.1605812922       24.5624736235      -15.3580741586  W2        2923            0.0000000000
      8770      2924  TIP3      OH2             5.1964012922       23.0939536235      -17.7171741586  W2        2924            0.0000000000
      8771      2924  TIP3      H1              4.9775712922       23.6240136235      -18.4835741586  W2        2924            0.0000000000
      8772      2924  TIP3      H2              4.5284912922       23.3205036235      -17.0700341586  W2        2924            0.0000000000
      8773      2925  TIP3      OH2            12.5653812922       32.5940636235      -24.1732641586  W2        2925            0.0000000000
      8774      2925  TIP3      H1             12.2698912922       32.2712936235      -25.0245741586  W2        2925            0.0000000000
      8775      2925  TIP3      H2             12.2411612922       33.4937336235      -24.1320041586  W2        2925            0.0000000000
      8776      2926  TIP3      OH2             7.7655412922       30.7695236235      -17.4298041586  W2        2926            0.0000000000
      8777      2926  TIP3      H1              7.0254512922       31.3676736235      -17.3262841586  W2        2926            0.0000000000
      8778      2926  TIP3      H2              8.4794912922       31.3234836235      -17.7454441586  W2        2926            0.0000000000
      8779      2927  TIP3      OH2            15.8723212922       23.5976036235      -21.4098341586  W2        2927            0.0000000000
      8780      2927  TIP3      H1             15.6571212922       22.8319436235      -20.8772341586  W2        2927            0.0000000000
      8781      2927  TIP3      H2             16.5280612922       24.0700636235      -20.8969841586  W2        2927            0.0000000000
      8782      2928  TIP3      OH2             4.7901312922       24.9861336235      -19.7649541586  W2        2928            0.0000000000
      8783      2928  TIP3      H1              5.4037612922       25.6188936235      -19.3917141586  W2        2928            0.0000000000
      8784      2928  TIP3      H2              5.3022012922       24.5136336235      -20.4212641586  W2        2928            0.0000000000
      8785      2929  TIP3      OH2             6.1729712922       32.7338236235      -16.6426541586  W2        2929            0.0000000000
      8786      2929  TIP3      H1              6.1677312922       33.6131736235      -17.0207241586  W2        2929            0.0000000000
      8787      2929  TIP3      H2              5.3193812922       32.6502336235      -16.2176641586  W2        2929            0.0000000000
      8788      2930  TIP3      OH2             2.2940612922       32.4046136235      -25.8607241586  W2        2930            0.0000000000
      8789      2930  TIP3      H1              2.0221512922       32.6337136235      -26.7494341586  W2        2930            0.0000000000
      8790      2930  TIP3      H2              2.3396312922       33.2424936235      -25.4001941586  W2        2930            0.0000000000
      8791      2931  TIP3      OH2            15.9190312922       34.0262036235      -19.1478741586  W2        2931            0.0000000000
      8792      2931  TIP3      H1             14.9774012922       34.0845936235      -18.9861841586  W2        2931            0.0000000000
      8793      2931  TIP3      H2             16.1956412922       34.9322536235      -19.2849041586  W2        2931            0.0000000000
      8794      2932  TIP3      OH2            16.2197312922       22.3127336235      -17.7304841586  W2        2932            0.0000000000
      8795      2932  TIP3      H1             15.4836512922       22.9234436235      -17.7683541586  W2        2932            0.0000000000
      8796      2932  TIP3      H2             16.9031312922       22.7276336235      -18.2568441586  W2        2932            0.0000000000
      8797      2933  TIP3      OH2             9.2228712922       20.3994636235      -20.2646841586  W2        2933            0.0000000000
      8798      2933  TIP3      H1              9.1052912922       19.4510636235      -20.3188541586  W2        2933            0.0000000000
      8799      2933  TIP3      H2              8.3678812922       20.7320736235      -19.9915741586  W2        2933            0.0000000000
      8800      2934  TIP3      OH2            14.1711512922       35.8075536235      -22.5227141586  W2        2934            0.0000000000
      8801      2934  TIP3      H1             14.5963812922       35.1003436235      -23.0077541586  W2        2934            0.0000000000
      8802      2934  TIP3      H2             14.4881512922       36.6088236235      -22.9394941586  W2        2934            0.0000000000
      8803      2935  TIP3      OH2            15.3308012922       33.7084036235      -24.0140541586  W2        2935            0.0000000000
      8804      2935  TIP3      H1             15.0732812922       33.0184136235      -24.6254641586  W2        2935            0.0000000000
      8805      2935  TIP3      H2             15.4018812922       33.2655236235      -23.1684641586  W2        2935            0.0000000000
      8806      2936  TIP3      OH2            17.0168212922       32.2750736235      -15.5367041586  W2        2936            0.0000000000
      8807      2936  TIP3      H1             17.1564512922       31.6833236235      -16.2760041586  W2        2936            0.0000000000
      8808      2936  TIP3      H2             17.1841012922       33.1476636235      -15.8928241586  W2        2936            0.0000000000
      8809      2937  TIP3      OH2            11.4893612922       29.2370236235      -25.7641041586  W2        2937            0.0000000000
      8810      2937  TIP3      H1             10.7779112922       29.7719936235      -26.1160541586  W2        2937            0.0000000000
      8811      2937  TIP3      H2             12.1803212922       29.2922336235      -26.4242141586  W2        2937            0.0000000000
      8812      2938  TIP3      OH2            11.5432812922       27.6944536235      -28.7256041586  W2        2938            0.0000000000
      8813      2938  TIP3      H1             12.2442712922       27.7171436235      -28.0742041586  W2        2938            0.0000000000
      8814      2938  TIP3      H2             11.8455712922       27.0664236235      -29.3816741586  W2        2938            0.0000000000
      8815      2939  TIP3      OH2            18.8587512922       28.6148736235      -17.4706641586  W2        2939            0.0000000000
      8816      2939  TIP3      H1             18.2061612922       29.3094336235      -17.3815741586  W2        2939            0.0000000000
      8817      2939  TIP3      H2             19.3237812922       28.8249636235      -18.2805041586  W2        2939            0.0000000000
      8818      2940  TIP3      OH2            14.8951312922       29.4463536235      -24.8125141586  W2        2940            0.0000000000
      8819      2940  TIP3      H1             14.1632312922       29.6747236235      -24.2394541586  W2        2940            0.0000000000
      8820      2940  TIP3      H2             15.3423512922       28.7326236235      -24.3577641586  W2        2940            0.0000000000
      8821      2941  TIP3      OH2            14.7924812922       27.6206136235      -15.7448141586  W2        2941            0.0000000000
      8822      2941  TIP3      H1             14.8723912922       28.3840536235      -15.1729641586  W2        2941            0.0000000000
      8823      2941  TIP3      H2             14.1912512922       27.8998536235      -16.4353041586  W2        2941            0.0000000000
      8824      2942  TIP3      OH2             6.5405012922       30.0769736235      -22.9300141586  W2        2942            0.0000000000
      8825      2942  TIP3      H1              6.2100212922       29.7063136235      -23.7483141586  W2        2942            0.0000000000
      8826      2942  TIP3      H2              7.1289112922       29.4063736235      -22.5831841586  W2        2942            0.0000000000
      8827      2943  TIP3      OH2             7.9072512922       33.5050336235      -20.2487941586  W2        2943            0.0000000000
      8828      2943  TIP3      H1              7.8123812922       32.9263436235      -21.0053341586  W2        2943            0.0000000000
      8829      2943  TIP3      H2              8.6366112922       33.1336036235      -19.7525141586  W2        2943            0.0000000000
      8830      2944  TIP3      OH2             6.9070512922       28.8455336235      -19.2965141586  W2        2944            0.0000000000
      8831      2944  TIP3      H1              7.4723012922       28.9669536235      -20.0593941586  W2        2944            0.0000000000
      8832      2944  TIP3      H2              7.2259412922       29.4830336235      -18.6576641586  W2        2944            0.0000000000
      8833      2945  TIP3      OH2            13.2162712922       34.3487236235      -18.5624641586  W2        2945            0.0000000000
      8834      2945  TIP3      H1             12.9759312922       35.0110336235      -17.9145441586  W2        2945            0.0000000000
      8835      2945  TIP3      H2             13.0180912922       33.5142436235      -18.1375041586  W2        2945            0.0000000000
      8836      2946  TIP3      OH2             7.7871212922       33.2448036235      -14.5793241586  W2        2946            0.0000000000
      8837      2946  TIP3      H1              7.4758712922       34.0271236235      -14.1240041586  W2        2946            0.0000000000
      8838      2946  TIP3      H2              7.1371412922       33.0917136235      -15.2651241586  W2        2946            0.0000000000
      8839      2947  TIP3      OH2            13.7660812922       28.6086436235      -27.1273941586  W2        2947            0.0000000000
      8840      2947  TIP3      H1             14.3456312922       28.7586736235      -26.3805041586  W2        2947            0.0000000000
      8841      2947  TIP3      H2             14.1800812922       29.0793836235      -27.8507541586  W2        2947            0.0000000000
      8842      2948  TIP3      OH2             4.7071112922       29.4429136235      -15.3507541586  W2        2948            0.0000000000
      8843      2948  TIP3      H1              4.7774312922       30.0935936235      -14.6522541586  W2        2948            0.0000000000
      8844      2948  TIP3      H2              3.8163312922       29.5456636235      -15.6856641586  W2        2948            0.0000000000
      8845      2949  TIP3      OH2            11.4925712922       35.3454936235      -23.6920841586  W2        2949            0.0000000000
      8846      2949  TIP3      H1             11.9663312922       35.6411236235      -22.9146641586  W2        2949            0.0000000000
      8847      2949  TIP3      H2             10.9295012922       36.0836536235      -23.9251241586  W2        2949            0.0000000000
      8848      2950  TIP3      OH2             6.0267112922       35.3163036235      -13.8159441586  W2        2950            0.0000000000
      8849      2950  TIP3      H1              6.0342412922       35.1802736235      -14.7633941586  W2        2950            0.0000000000
      8850      2950  TIP3      H2              5.1107512922       35.1991136235      -13.5639441586  W2        2950            0.0000000000
      8851      2951  TIP3      OH2            17.4649212922       20.3586836235      -27.3144241586  W2        2951            0.0000000000
      8852      2951  TIP3      H1             16.5649912922       20.4975836235      -27.0193641586  W2        2951            0.0000000000
      8853      2951  TIP3      H2             17.7167612922       21.1901436235      -27.7162541586  W2        2951            0.0000000000
      8854      2952  TIP3      OH2             5.5307712922       29.1464036235      -25.3407341586  W2        2952            0.0000000000
      8855      2952  TIP3      H1              5.2389012922       29.9145736235      -25.8316041586  W2        2952            0.0000000000
      8856      2952  TIP3      H2              4.8562912922       28.4870236235      -25.5035941586  W2        2952            0.0000000000
      8857      2953  TIP3      OH2            18.6540612922       34.7249236235      -28.9380341586  W2        2953            0.0000000000
      8858      2953  TIP3      H1             18.7274112922       35.6639436235      -28.7675041586  W2        2953            0.0000000000
      8859      2953  TIP3      H2             19.5595712922       34.4197836235      -28.9943041586  W2        2953            0.0000000000
      8860      2954  TIP3      OH2             1.6237812922       31.5093236235      -16.5257541586  W2        2954            0.0000000000
      8861      2954  TIP3      H1              1.1226212922       31.4812636235      -17.3407841586  W2        2954            0.0000000000
      8862      2954  TIP3      H2              1.6291512922       30.6036436235      -16.2160241586  W2        2954            0.0000000000
      8863      2955  TIP3      OH2             1.3740512922       34.2897036235      -19.6417341586  W2        2955            0.0000000000
      8864      2955  TIP3      H1              2.3201112922       34.1454036235      -19.6607841586  W2        2955            0.0000000000
      8865      2955  TIP3      H2              1.2616812922       35.0739836235      -19.1046141586  W2        2955            0.0000000000
      8866      2956  TIP3      OH2            19.5719012922       34.9556736235      -13.9593641586  W2        2956            0.0000000000
      8867      2956  TIP3      H1             19.5225812922       34.0004836235      -13.9966041586  W2        2956            0.0000000000
      8868      2956  TIP3      H2             18.7451312922       35.2232036235      -13.5579841586  W2        2956            0.0000000000
      8869      2957  TIP3      OH2            10.5503012922       34.5295936235      -15.0832241586  W2        2957            0.0000000000
      8870      2957  TIP3      H1             10.6377612922       35.3560536235      -14.6083141586  W2        2957            0.0000000000
      8871      2957  TIP3      H2              9.6868112922       34.1999736235      -14.8342941586  W2        2957            0.0000000000
      8872      2958  TIP3      OH2            16.7238812922       26.4489236235      -13.4791441586  W2        2958            0.0000000000
      8873      2958  TIP3      H1             16.3165612922       26.9294836235      -14.1998141586  W2        2958            0.0000000000
      8874      2958  TIP3      H2             16.7644512922       25.5435236235      -13.7870641586  W2        2958            0.0000000000
      8875      2959  TIP3      OH2             3.8728312922       32.8328636235      -15.4824741586  W2        2959            0.0000000000
      8876      2959  TIP3      H1              4.0889612922       32.4714236235      -14.6228941586  W2        2959            0.0000000000
      8877      2959  TIP3      H2              3.0173012922       32.4582436235      -15.6921241586  W2        2959            0.0000000000
      8878      2960  TIP3      OH2             6.4916312922       21.3029136235      -19.4870541586  W2        2960            0.0000000000
      8879      2960  TIP3      H1              5.6300012922       21.2157336235      -19.8947641586  W2        2960            0.0000000000
      8880      2960  TIP3      H2              6.4692012922       22.1589236235      -19.0592941586  W2        2960            0.0000000000
      8881      2961  TIP3      OH2            11.1544112922       21.0249536235      -16.1123541586  W2        2961            0.0000000000
      8882      2961  TIP3      H1             11.5747212922       20.6096636235      -15.3592941586  W2        2961            0.0000000000
      8883      2961  TIP3      H2             10.2213712922       20.8462836235      -15.9951541586  W2        2961            0.0000000000
      8884      2962  TIP3      OH2            14.4809012922       24.7804736235      -15.2589041586  W2        2962            0.0000000000
      8885      2962  TIP3      H1             13.9668512922       24.6546936235      -14.4613041586  W2        2962            0.0000000000
      8886      2962  TIP3      H2             14.3253712922       25.6927836235      -15.5032841586  W2        2962            0.0000000000
      8887      2963  TIP3      OH2            15.2433912922       29.6414736235      -29.4976041586  W2        2963            0.0000000000
      8888      2963  TIP3      H1             15.2854712922       29.4188636235      -30.4276041586  W2        2963            0.0000000000
      8889      2963  TIP3      H2             16.0926012922       30.0401836235      -29.3076141586  W2        2963            0.0000000000
      8890      2964  TIP3      OH2            10.8161412922       23.5172936235      -28.8272741586  W2        2964            0.0000000000
      8891      2964  TIP3      H1             10.5626212922       23.5364536235      -27.9044641586  W2        2964            0.0000000000
      8892      2964  TIP3      H2             10.5593512922       22.6458336235      -29.1286541586  W2        2964            0.0000000000
      8893      2965  TIP3      OH2             6.5826412922       26.2683636235      -18.3920341586  W2        2965            0.0000000000
      8894      2965  TIP3      H1              5.9408512922       26.2280936235      -17.6830241586  W2        2965            0.0000000000
      8895      2965  TIP3      H2              6.6198412922       27.1948336235      -18.6297341586  W2        2965            0.0000000000
      8896      2966  TIP3      OH2             6.5795512922       26.4893736235      -23.4800341586  W2        2966            0.0000000000
      8897      2966  TIP3      H1              5.6868412922       26.1489836235      -23.5386541586  W2        2966            0.0000000000
      8898      2966  TIP3      H2              7.0302112922       26.1124636235      -24.2357141586  W2        2966            0.0000000000
      8899      2967  TIP3      OH2            12.1151012922       26.9054036235      -24.6629541586  W2        2967            0.0000000000
      8900      2967  TIP3      H1             11.7061312922       27.7202636235      -24.9544741586  W2        2967            0.0000000000
      8901      2967  TIP3      H2             12.8357212922       26.7654136235      -25.2772441586  W2        2967            0.0000000000
      8902      2968  TIP3      OH2            11.2172612922       27.0810436235      -13.1748841586  W2        2968            0.0000000000
      8903      2968  TIP3      H1             10.6546412922       26.3762036235      -12.8541041586  W2        2968            0.0000000000
      8904      2968  TIP3      H2             12.0436012922       26.9602336235      -12.7071241586  W2        2968            0.0000000000
      8905      2969  TIP3      OH2            13.1198712922       26.3514436235      -21.8489841586  W2        2969            0.0000000000
      8906      2969  TIP3      H1             12.9243212922       26.9571236235      -22.5639241586  W2        2969            0.0000000000
      8907      2969  TIP3      H2             13.3011312922       25.5179636235      -22.2833541586  W2        2969            0.0000000000
      8908      2970  TIP3      OH2             4.3326912922       26.5887136235      -16.5248341586  W2        2970            0.0000000000
      8909      2970  TIP3      H1              4.2946312922       26.9888736235      -15.6561241586  W2        2970            0.0000000000
      8910      2970  TIP3      H2              3.8418012922       25.7719536235      -16.4345441586  W2        2970            0.0000000000
      8911      2971  TIP3      OH2             7.6984312922       23.9629436235      -29.7262341586  W2        2971            0.0000000000
      8912      2971  TIP3      H1              7.2675012922       23.5179536235      -28.9964941586  W2        2971            0.0000000000
      8913      2971  TIP3      H2              6.9803012922       24.3345736235      -30.2384841586  W2        2971            0.0000000000
      8914      2972  TIP3      OH2             0.9407712922       23.7048936235      -22.6743641586  W2        2972            0.0000000000
      8915      2972  TIP3      H1              1.5715412922       23.6761036235      -21.9549741586  W2        2972            0.0000000000
      8916      2972  TIP3      H2              1.3902012922       23.2797636235      -23.4047741586  W2        2972            0.0000000000
      8917      2973  TIP3      OH2             2.2149812922       24.4510936235      -27.2503241586  W2        2973            0.0000000000
      8918      2973  TIP3      H1              2.6891512922       25.0420836235      -27.8352341586  W2        2973            0.0000000000
      8919      2973  TIP3      H2              1.4976212922       24.9813836235      -26.9033141586  W2        2973            0.0000000000
      8920      2974  TIP3      OH2            12.3837912922       27.9895736235      -17.1777441586  W2        2974            0.0000000000
      8921      2974  TIP3      H1             12.7072712922       27.3585436235      -17.8206941586  W2        2974            0.0000000000
      8922      2974  TIP3      H2             11.9437212922       27.4547936235      -16.5170041586  W2        2974            0.0000000000
      8923      2975  TIP3      OH2             9.1610812922       23.9171236235      -22.3936241586  W2        2975            0.0000000000
      8924      2975  TIP3      H1              8.2501912922       23.9738036235      -22.1050241586  W2        2975            0.0000000000
      8925      2975  TIP3      H2              9.6663712922       23.8566736235      -21.5829041586  W2        2975            0.0000000000
      8926      2976  TIP3      OH2             3.9894212922       25.5457536235      -23.5668641586  W2        2976            0.0000000000
      8927      2976  TIP3      H1              3.1002212922       25.6453036235      -23.9069041586  W2        2976            0.0000000000
      8928      2976  TIP3      H2              4.2859112922       24.7040536235      -23.9130741586  W2        2976            0.0000000000
      8929      2977  TIP3      OH2             7.6426012922       25.5460136235      -25.9104041586  W2        2977            0.0000000000
      8930      2977  TIP3      H1              8.5741512922       25.6750136235      -25.7320941586  W2        2977            0.0000000000
      8931      2977  TIP3      H2              7.4276312922       26.2154436235      -26.5599341586  W2        2977            0.0000000000
      8932      2978  TIP3      OH2            13.5662712922       23.1517536235      -19.1294441586  W2        2978            0.0000000000
      8933      2978  TIP3      H1             12.8894312922       23.2830636235      -18.4654741586  W2        2978            0.0000000000
      8934      2978  TIP3      H2             13.0807612922       22.9967036235      -19.9396741586  W2        2978            0.0000000000
      8935      2979  TIP3      OH2             6.3166212922       26.7402336235      -28.3437941586  W2        2979            0.0000000000
      8936      2979  TIP3      H1              5.7741312922       26.3606136235      -29.0350341586  W2        2979            0.0000000000
      8937      2979  TIP3      H2              7.1501112922       26.9347036235      -28.7723841586  W2        2979            0.0000000000
      8938      2980  TIP3      OH2             4.4517612922       31.2974236235      -13.2446341586  W2        2980            0.0000000000
      8939      2980  TIP3      H1              5.1840012922       31.5520136235      -12.6831841586  W2        2980            0.0000000000
      8940      2980  TIP3      H2              3.6716312922       31.5019636235      -12.7290941586  W2        2980            0.0000000000
      8941      2981  TIP3      OH2            10.4810512922       26.7044236235      -20.5066641586  W2        2981            0.0000000000
      8942      2981  TIP3      H1             11.0453912922       26.1580836235      -21.0537041586  W2        2981            0.0000000000
      8943      2981  TIP3      H2             10.3333912922       26.1826136235      -19.7179041586  W2        2981            0.0000000000
      8944      2982  TIP3      OH2             5.4830212922       22.8410336235      -24.0881841586  W2        2982            0.0000000000
      8945      2982  TIP3      H1              5.1659712922       21.9385636235      -24.1236441586  W2        2982            0.0000000000
      8946      2982  TIP3      H2              6.2644312922       22.8427736235      -24.6410241586  W2        2982            0.0000000000
      8947      2983  TIP3      OH2             9.1076412922       25.0930336235      -18.0926241586  W2        2983            0.0000000000
      8948      2983  TIP3      H1              8.2721712922       25.5469836235      -17.9823841586  W2        2983            0.0000000000
      8949      2983  TIP3      H2              9.6317012922       25.3688836235      -17.3406341586  W2        2983            0.0000000000
      8950      2984  TIP3      OH2             9.6519012922       31.3058036235      -26.4079841586  W2        2984            0.0000000000
      8951      2984  TIP3      H1              8.9070012922       30.7983336235      -26.7301941586  W2        2984            0.0000000000
      8952      2984  TIP3      H2              9.5176212922       31.3546036235      -25.4615041586  W2        2984            0.0000000000
      8953      2985  TIP3      OH2            16.8017912922       30.4386236235      -17.6212241586  W2        2985            0.0000000000
      8954      2985  TIP3      H1             17.4436712922       30.8952536235      -18.1650041586  W2        2985            0.0000000000
      8955      2985  TIP3      H2             15.9714812922       30.5518636235      -18.0838141586  W2        2985            0.0000000000
      8956      2986  TIP3      OH2            13.5495812922       24.1197936235      -28.2087241586  W2        2986            0.0000000000
      8957      2986  TIP3      H1             12.6110012922       24.2313536235      -28.3598441586  W2        2986            0.0000000000
      8958      2986  TIP3      H2             13.8467912922       24.9764836235      -27.9021541586  W2        2986            0.0000000000
      8959      2987  TIP3      OH2            11.1711112922       31.4901336235      -15.1710741586  W2        2987            0.0000000000
      8960      2987  TIP3      H1             10.8257212922       31.1083736235      -14.3641141586  W2        2987            0.0000000000
      8961      2987  TIP3      H2             10.9711212922       32.4234936235      -15.0997841586  W2        2987            0.0000000000
      8962      2988  TIP3      OH2            14.2679312922       25.9870636235      -26.5479841586  W2        2988            0.0000000000
      8963      2988  TIP3      H1             15.1598312922       25.8495636235      -26.2288641586  W2        2988            0.0000000000
      8964      2988  TIP3      H2             14.3242912922       26.7776736235      -27.0846341586  W2        2988            0.0000000000
      8965      2989  TIP3      OH2             4.7767312922       30.6008036235      -20.6381941586  W2        2989            0.0000000000
      8966      2989  TIP3      H1              5.5214512922       30.5983736235      -21.2395441586  W2        2989            0.0000000000
      8967      2989  TIP3      H2              4.8543912922       29.7771836235      -20.1566841586  W2        2989            0.0000000000
      8968      2990  TIP3      OH2            11.7773112922       32.7642336235      -27.3825241586  W2        2990            0.0000000000
      8969      2990  TIP3      H1             11.4821512922       33.5910236235      -27.0010441586  W2        2990            0.0000000000
      8970      2990  TIP3      H2             11.0743112922       32.1449236235      -27.1863841586  W2        2990            0.0000000000
      8971      2991  TIP3      OH2             1.7847012922       29.0614936235      -15.3233441586  W2        2991            0.0000000000
      8972      2991  TIP3      H1              2.0075612922       28.6434536235      -14.4915941586  W2        2991            0.0000000000
      8973      2991  TIP3      H2              1.1827112922       28.4489936235      -15.7460641586  W2        2991            0.0000000000
      8974      2992  TIP3      OH2             8.8011912922       28.5784836235      -13.1103741586  W2        2992            0.0000000000
      8975      2992  TIP3      H1              8.5052712922       28.4127836235      -14.0054641586  W2        2992            0.0000000000
      8976      2992  TIP3      H2              9.7327112922       28.3585136235      -13.1209841586  W2        2992            0.0000000000
      8977      2993  TIP3      OH2            13.4214712922       33.9516836235      -15.2205741586  W2        2993            0.0000000000
      8978      2993  TIP3      H1             12.5209012922       34.1349436235      -15.4881841586  W2        2993            0.0000000000
      8979      2993  TIP3      H2             13.4555812922       34.2106136235      -14.2996941586  W2        2993            0.0000000000
      8980      2994  TIP3      OH2            19.1528012922       26.1964736235      -26.8533141586  W2        2994            0.0000000000
      8981      2994  TIP3      H1             18.5984312922       25.8002736235      -27.5255641586  W2        2994            0.0000000000
      8982      2994  TIP3      H2             19.2531612922       27.1069936235      -27.1309841586  W2        2994            0.0000000000
      8983      2995  TIP3      OH2            19.1160012922       31.9966436235      -14.0161641586  W2        2995            0.0000000000
      8984      2995  TIP3      H1             18.2648512922       32.2350236235      -14.3835241586  W2        2995            0.0000000000
      8985      2995  TIP3      H2             19.7063412922       31.9799636235      -14.7694541586  W2        2995            0.0000000000
      8986      2996  TIP3      OH2            17.4479712922       34.9825136235      -26.3881041586  W2        2996            0.0000000000
      8987      2996  TIP3      H1             17.0750812922       34.1568936235      -26.0790441586  W2        2996            0.0000000000
      8988      2996  TIP3      H2             17.7253212922       34.7994536235      -27.2857641586  W2        2996            0.0000000000
      8989      2997  TIP3      OH2            14.6083612922       29.7904636235      -19.3669141586  W2        2997            0.0000000000
      8990      2997  TIP3      H1             13.6800512922       29.5586536235      -19.3939841586  W2        2997            0.0000000000
      8991      2997  TIP3      H2             15.0594712922       29.0134436235      -19.6970341586  W2        2997            0.0000000000
      8992      2998  TIP3      OH2             7.1516712922       34.1186236235      -23.2340441586  W2        2998            0.0000000000
      8993      2998  TIP3      H1              7.6788912922       34.8920636235      -23.4341641586  W2        2998            0.0000000000
      8994      2998  TIP3      H2              6.2715212922       34.3435436235      -23.5356441586  W2        2998            0.0000000000
      8995      2999  TIP3      OH2             2.9064412922       28.9810336235      -28.6468041586  W2        2999            0.0000000000
      8996      2999  TIP3      H1              3.5224312922       29.6077536235      -28.2673241586  W2        2999            0.0000000000
      8997      2999  TIP3      H2              2.0447012922       29.2970136235      -28.3751541586  W2        2999            0.0000000000
      8998      3000  TIP3      OH2             8.5789012922       31.7816136235      -23.6576141586  W2        3000            0.0000000000
      8999      3000  TIP3      H1              8.3379012922       32.7070536235      -23.6160841586  W2        3000            0.0000000000
      9000      3000  TIP3      H2              7.8382612922       31.3227436235      -23.2612241586  W2        3000            0.0000000000
      9001      3001  TIP3      OH2             9.0935612922       35.9309736235      -17.3425041586  W2        3001            0.0000000000
      9002      3001  TIP3      H1              9.4560312922       36.7855336235      -17.5760641586  W2        3001            0.0000000000
      9003      3001  TIP3      H2              9.6250812922       35.6391336235      -16.6018741586  W2        3001            0.0000000000
      9004      3002  TIP3      OH2             7.2619812922       36.8033736235      -24.1123941586  W2        3002            0.0000000000
      9005      3002  TIP3      H1              6.3120312922       36.9091136235      -24.0610641586  W2        3002            0.0000000000
      9006      3002  TIP3      H2              7.6137912922       37.6241136235      -23.7676441586  W2        3002            0.0000000000
      9007      3003  TIP3      OH2            12.6376412922       32.0300436235      -17.6419441586  W2        3003            0.0000000000
      9008      3003  TIP3      H1             12.2117712922       31.8022136235      -16.8155441586  W2        3003            0.0000000000
      9009      3003  TIP3      H2             13.2182212922       31.2912236235      -17.8244141586  W2        3003            0.0000000000
      9010      3004  TIP3      OH2            14.8405312922       32.9590936235      -28.5680441586  W2        3004            0.0000000000
      9011      3004  TIP3      H1             15.1938412922       32.5790736235      -27.7636941586  W2        3004            0.0000000000
      9012      3004  TIP3      H2             13.8918812922       32.8655736235      -28.4811141586  W2        3004            0.0000000000
      9013      3005  TIP3      OH2            15.2960612922       36.5819936235      -15.1724641586  W2        3005            0.0000000000
      9014      3005  TIP3      H1             14.6943812922       36.0262836235      -15.6678341586  W2        3005            0.0000000000
      9015      3005  TIP3      H2             15.5774312922       37.2489736235      -15.7987241586  W2        3005            0.0000000000
      9016      3006  TIP3      OH2             3.4186512922       23.8147636235      -15.7652041586  W2        3006            0.0000000000
      9017      3006  TIP3      H1              2.5258812922       24.1533036235      -15.8328041586  W2        3006            0.0000000000
      9018      3006  TIP3      H2              3.3199312922       22.9593736235      -15.3471241586  W2        3006            0.0000000000
      9019      3007  TIP3      OH2            15.7064612922       31.6312936235      -26.3412541586  W2        3007            0.0000000000
      9020      3007  TIP3      H1             15.4292212922       30.9032236235      -25.7851441586  W2        3007            0.0000000000
      9021      3007  TIP3      H2             16.6337612922       31.7504936235      -26.1359941586  W2        3007            0.0000000000
      9022      3008  TIP3      OH2             3.0698512922       35.6192036235      -17.3302641586  W2        3008            0.0000000000
      9023      3008  TIP3      H1              3.2868812922       34.6874436235      -17.3612941586  W2        3008            0.0000000000
      9024      3008  TIP3      H2              3.3162012922       35.8937036235      -16.4469841586  W2        3008            0.0000000000
      9025      3009  TIP3      OH2             8.9313112922       34.0707036235      -30.1210441586  W2        3009            0.0000000000
      9026      3009  TIP3      H1              9.1702912922       33.3225136235      -30.6681541586  W2        3009            0.0000000000
      9027      3009  TIP3      H2              8.6624412922       33.6828736235      -29.2882641586  W2        3009            0.0000000000
      9028      3010  TIP3      OH2             7.8683712922       33.6410836235      -27.6647841586  W2        3010            0.0000000000
      9029      3010  TIP3      H1              8.0151712922       33.1210636235      -26.8746941586  W2        3010            0.0000000000
      9030      3010  TIP3      H2              7.8655412922       34.5478436235      -27.3581941586  W2        3010            0.0000000000
      9031      3011  TIP3      OH2             4.3214812922       30.8934136235      -27.1542441586  W2        3011            0.0000000000
      9032      3011  TIP3      H1              3.6354112922       31.2456636235      -26.5872741586  W2        3011            0.0000000000
      9033      3011  TIP3      H2              4.8442712922       31.6563736235      -27.4008141586  W2        3011            0.0000000000
      9034      3012  TIP3      OH2            12.1529912922       23.5557936235      -16.8753441586  W2        3012            0.0000000000
      9035      3012  TIP3      H1             12.8517812922       23.6296636235      -16.2253741586  W2        3012            0.0000000000
      9036      3012  TIP3      H2             11.7721312922       22.6912936235      -16.7210541586  W2        3012            0.0000000000
      9037      3013  TIP3      OH2            12.9374812922       23.2079636235      -25.7781141586  W2        3013            0.0000000000
      9038      3013  TIP3      H1             13.1573112922       23.6795036235      -26.5815741586  W2        3013            0.0000000000
      9039      3013  TIP3      H2             13.4958812922       23.6022236235      -25.1080541586  W2        3013            0.0000000000
      9040      3014  TIP3      OH2            10.6060912922       35.3384436235      -26.9153641586  W2        3014            0.0000000000
      9041      3014  TIP3      H1              9.7897012922       35.8354136235      -26.8629341586  W2        3014            0.0000000000
      9042      3014  TIP3      H2             11.1357212922       35.8137936235      -27.5554841586  W2        3014            0.0000000000
      9043      3015  TIP3      OH2            10.1374712922       24.9358436235      -24.9432741586  W2        3015            0.0000000000
      9044      3015  TIP3      H1             10.9497312922       25.4401636235      -24.8971041586  W2        3015            0.0000000000
      9045      3015  TIP3      H2              9.8927712922       24.7908136235      -24.0293141586  W2        3015            0.0000000000
      9046      3016  TIP3      OH2            10.6731112922       25.9221136235      -15.7586141586  W2        3016            0.0000000000
      9047      3016  TIP3      H1             10.7921412922       26.4956536235      -15.0015741586  W2        3016            0.0000000000
      9048      3016  TIP3      H2             11.3285712922       25.2340536235      -15.6438341586  W2        3016            0.0000000000
      9049      3017  TIP3      OH2            11.0211412922       22.0171436235      -24.0051641586  W2        3017            0.0000000000
      9050      3017  TIP3      H1             10.6744912922       22.6342036235      -23.3607341586  W2        3017            0.0000000000
      9051      3017  TIP3      H2             11.6798312922       22.5177136235      -24.4866141586  W2        3017            0.0000000000
      9052      3018  TIP3      OH2             7.9444012922       36.3821636235      -26.9336741586  W2        3018            0.0000000000
      9053      3018  TIP3      H1              8.1052712922       37.1819136235      -27.4344141586  W2        3018            0.0000000000
      9054      3018  TIP3      H2              7.7471812922       36.6887636235      -26.0486141586  W2        3018            0.0000000000
      9055      3019  TIP3      OH2             6.6788412922       23.0800836235      -27.3179141586  W2        3019            0.0000000000
      9056      3019  TIP3      H1              6.5953212922       23.9683936235      -26.9712741586  W2        3019            0.0000000000
      9057      3019  TIP3      H2              7.5688712922       22.8147536235      -27.0862341586  W2        3019            0.0000000000
      9058      3020  TIP3      OH2            16.8776912922       23.8291436235      -14.9236441586  W2        3020            0.0000000000
      9059      3020  TIP3      H1             15.9612712922       24.0913136235      -15.0112741586  W2        3020            0.0000000000
      9060      3020  TIP3      H2             17.2131912922       23.8260436235      -15.8201141586  W2        3020            0.0000000000
      9061      3021  TIP3      OH2            15.4797912922       27.5792436235      -20.8279141586  W2        3021            0.0000000000
      9062      3021  TIP3      H1             14.6822312922       27.1642636235      -21.1564141586  W2        3021            0.0000000000
      9063      3021  TIP3      H2             15.9249012922       26.8886136235      -20.3368641586  W2        3021            0.0000000000
      9064      3022  TIP3      OH2             4.9373712922       33.5073036235      -28.2574641586  W2        3022            0.0000000000
      9065      3022  TIP3      H1              5.5295212922       34.2067836235      -27.9812241586  W2        3022            0.0000000000
      9066      3022  TIP3      H2              5.3966712922       33.0742536235      -28.9770041586  W2        3022            0.0000000000
      9067      3023  TIP3      OH2             3.2532912922       26.1716036235      -29.1415241586  W2        3023            0.0000000000
      9068      3023  TIP3      H1              3.2085512922       27.1109136235      -28.9628241586  W2        3023            0.0000000000
      9069      3023  TIP3      H2              2.3656112922       25.9360936235      -29.4113141586  W2        3023            0.0000000000
      9070      3024  TIP3      OH2             4.0614912922       20.9532636235      -20.4684241586  W2        3024            0.0000000000
      9071      3024  TIP3      H1              3.8324712922       21.0125136235      -21.3959241586  W2        3024            0.0000000000
      9072      3024  TIP3      H2              3.6188312922       20.1618136235      -20.1620141586  W2        3024            0.0000000000
      9073      3025  TIP3      OH2             2.9918212922       34.8939736235      -24.3078441586  W2        3025            0.0000000000
      9074      3025  TIP3      H1              2.1596812922       35.3662436235      -24.2807041586  W2        3025            0.0000000000
      9075      3025  TIP3      H2              3.5376512922       35.4037336235      -24.9065341586  W2        3025            0.0000000000
      9076      3026  TIP3      OH2             6.8775312922       36.4257836235      -11.3576241586  W2        3026            0.0000000000
      9077      3026  TIP3      H1              7.6452512922       35.9668636235      -11.0167041586  W2        3026            0.0000000000
      9078      3026  TIP3      H2              6.8561512922       36.1997636235      -12.2875041586  W2        3026            0.0000000000
      9079      3027  TIP3      OH2            10.9694912922       35.9338436235      -29.9824441586  W2        3027            0.0000000000
      9080      3027  TIP3      H1             10.3255912922       35.3027036235      -29.6610741586  W2        3027            0.0000000000
      9081      3027  TIP3      H2             11.7313212922       35.4026436235      -30.2140941586  W2        3027            0.0000000000
      9082      3028  TIP3      OH2            13.4544012922       34.8058936235      -12.6284741586  W2        3028            0.0000000000
      9083      3028  TIP3      H1             13.1033512922       33.9491936235      -12.3854341586  W2        3028            0.0000000000
      9084      3028  TIP3      H2             14.1807212922       34.9485636235      -12.0215741586  W2        3028            0.0000000000
      9085      3029  TIP3      OH2            15.5737812922       35.7508336235      -29.7486441586  W2        3029            0.0000000000
      9086      3029  TIP3      H1             15.8568212922       34.9563536235      -29.2959541586  W2        3029            0.0000000000
      9087      3029  TIP3      H2             16.3135712922       35.9839336235      -30.3095341586  W2        3029            0.0000000000
      9088      3030  TIP3      OH2             2.1871412922       31.3167536235      -12.0236141586  W2        3030            0.0000000000
      9089      3030  TIP3      H1              2.3311912922       30.4148236235      -12.3099441586  W2        3030            0.0000000000
      9090      3030  TIP3      H2              1.4148812922       31.6029636235      -12.5113841586  W2        3030            0.0000000000
      9091      3031  TIP3      OH2             6.5285112922       31.6603236235      -29.8911541586  W2        3031            0.0000000000
      9092      3031  TIP3      H1              6.5929212922       30.8662836235      -29.3605141586  W2        3031            0.0000000000
      9093      3031  TIP3      H2              7.1814312922       31.5416036235      -30.5809541586  W2        3031            0.0000000000
      9094      3032  TIP3      OH2             8.8427512922       31.2865636235      -12.5909741586  W2        3032            0.0000000000
      9095      3032  TIP3      H1              8.5141312922       31.5573736235      -13.4482341586  W2        3032            0.0000000000
      9096      3032  TIP3      H2              8.9945712922       30.3455436235      -12.6784741586  W2        3032            0.0000000000
      9097      3033  TIP3      OH2            11.8808512922       32.7074936235      -30.1553541586  W2        3033            0.0000000000
      9098      3033  TIP3      H1             11.6122612922       32.8877036235      -29.2544641586  W2        3033            0.0000000000
      9099      3033  TIP3      H2             11.6744112922       31.7821136235      -30.2867741586  W2        3033            0.0000000000
      9100      3034  TIP3      OH2            14.5772712922       31.2022936235      -15.2077441586  W2        3034            0.0000000000
      9101      3034  TIP3      H1             15.3227512922       31.7906636235      -15.3273441586  W2        3034            0.0000000000
      9102      3034  TIP3      H2             13.8199512922       31.7842636235      -15.1444341586  W2        3034            0.0000000000
      9103      3035  TIP3      OH2             3.0197912922       28.5170836235      -12.6036841586  W2        3035            0.0000000000
      9104      3035  TIP3      H1              3.4279112922       27.6597436235      -12.7246241586  W2        3035            0.0000000000
      9105      3035  TIP3      H2              2.7595512922       28.5312136235      -11.6826541586  W2        3035            0.0000000000
      9106      3036  TIP3      OH2             7.6778912922       29.6329436235      -27.5853541586  W2        3036            0.0000000000
      9107      3036  TIP3      H1              7.2180912922       29.1487736235      -26.8995041586  W2        3036            0.0000000000
      9108      3036  TIP3      H2              7.9327612922       28.9644836235      -28.2213041586  W2        3036            0.0000000000
      9109      3037  TIP3      OH2             6.9668212922       27.5256536235      -15.2293941586  W2        3037            0.0000000000
      9110      3037  TIP3      H1              6.3484312922       28.2003136235      -14.9489241586  W2        3037            0.0000000000
      9111      3037  TIP3      H2              7.3109412922       27.8470436235      -16.0627741586  W2        3037            0.0000000000
      9112      3038  TIP3      OH2             8.7489312922       27.8761236235      -29.3230341586  W2        3038            0.0000000000
      9113      3038  TIP3      H1              8.5684312922       27.7212436235      -30.2502041586  W2        3038            0.0000000000
      9114      3038  TIP3      H2              9.6989812922       27.9839936235      -29.2782441586  W2        3038            0.0000000000
      9115      3039  TIP3      OH2            11.9866412922       29.9971836235      -11.9519141586  W2        3039            0.0000000000
      9116      3039  TIP3      H1             12.9397612922       30.0810936235      -11.9793141586  W2        3039            0.0000000000
      9117      3039  TIP3      H2             11.8261012922       29.2853636235      -11.3324241586  W2        3039            0.0000000000
      9118      3040  TIP3      OH2            18.1387612922       30.2305436235      -29.8772241586  W2        3040            0.0000000000
      9119      3040  TIP3      H1             17.8652412922       29.8060936235      -30.6903941586  W2        3040            0.0000000000
      9120      3040  TIP3      H2             18.1781712922       31.1619936235      -30.0941841586  W2        3040            0.0000000000
      9121      3041  TIP3      OH2             7.3061912922       24.8807336235      -14.1470841586  W2        3041            0.0000000000
      9122      3041  TIP3      H1              7.4562812922       24.1518636235      -14.7491141586  W2        3041            0.0000000000
      9123      3041  TIP3      H2              7.3084312922       25.6579036235      -14.7058641586  W2        3041            0.0000000000
      9124      3042  TIP3      OH2             7.7187612922       23.2503136235      -16.6543441586  W2        3042            0.0000000000
      9125      3042  TIP3      H1              8.2545112922       23.7019836235      -17.3064141586  W2        3042            0.0000000000
      9126      3042  TIP3      H2              6.8667212922       23.1422936235      -17.0769341586  W2        3042            0.0000000000
      9127      3043  TIP3      OH2             9.3006012922       28.6899336235      -16.4148241586  W2        3043            0.0000000000
      9128      3043  TIP3      H1             10.0510812922       28.5336836235      -16.9880441586  W2        3043            0.0000000000
      9129      3043  TIP3      H2              8.9614312922       29.5415936235      -16.6902741586  W2        3043            0.0000000000
      9130      3044  TIP3      OH2            13.7162212922       26.5051136235      -11.3862941586  W2        3044            0.0000000000
      9131      3044  TIP3      H1             13.9083512922       25.5740536235      -11.4978441586  W2        3044            0.0000000000
      9132      3044  TIP3      H2             14.5738512922       26.9300636235      -11.3967541586  W2        3044            0.0000000000
      9133      3045  TIP3      OH2            15.0329412922       29.2936336235      -13.3090241586  W2        3045            0.0000000000
      9134      3045  TIP3      H1             14.7514412922       30.0030936235      -13.8866441586  W2        3045            0.0000000000
      9135      3045  TIP3      H2             15.9753712922       29.2209336235      -13.4599041586  W2        3045            0.0000000000
      9136      3046  TIP3      OH2             5.7848212922       26.0790836235      -12.2355241586  W2        3046            0.0000000000
      9137      3046  TIP3      H1              5.0177212922       25.5465636235      -12.4457641586  W2        3046            0.0000000000
      9138      3046  TIP3      H2              6.4637212922       25.7691236235      -12.8348941586  W2        3046            0.0000000000
      9139      3047  TIP3      OH2             8.5243112922       20.7068836235      -16.2229841586  W2        3047            0.0000000000
      9140      3047  TIP3      H1              8.4262712922       21.6532036235      -16.3283641586  W2        3047            0.0000000000
      9141      3047  TIP3      H2              7.7819312922       20.3342636235      -16.6986341586  W2        3047            0.0000000000
      9142      3048  TIP3      OH2             9.7883612922       25.0284236235      -12.6591441586  W2        3048            0.0000000000
      9143      3048  TIP3      H1              9.5529012922       24.8090936235      -11.7576541586  W2        3048            0.0000000000
      9144      3048  TIP3      H2              9.0050512922       24.8215436235      -13.1688941586  W2        3048            0.0000000000
      9145      3049  TIP3      OH2            12.5040212922       24.1557736235      -13.5837941586  W2        3049            0.0000000000
      9146      3049  TIP3      H1             11.5565612922       24.1877436235      -13.4514641586  W2        3049            0.0000000000
      9147      3049  TIP3      H2             12.8166912922       23.5304836235      -12.9299741586  W2        3049            0.0000000000
      9148      3050  TIP3      OH2            14.1381712922       22.7898836235      -11.5786041586  W2        3050            0.0000000000
      9149      3050  TIP3      H1             14.0413512922       21.8376136235      -11.5844141586  W2        3050            0.0000000000
      9150      3050  TIP3      H2             13.8164812922       23.0585636235      -10.7180541586  W2        3050            0.0000000000
      9151      3051  TIP3      OH2             3.9651012922       23.9994636235      -12.5310541586  W2        3051            0.0000000000
      9152      3051  TIP3      H1              4.1768412922       23.2930736235      -13.1413041586  W2        3051            0.0000000000
      9153      3051  TIP3      H2              3.8538512922       23.5620636235      -11.6869341586  W2        3051            0.0000000000
      9154      3052  TIP3      OH2             8.7461212922       20.0006236235      -13.5517041586  W2        3052            0.0000000000
      9155      3052  TIP3      H1              9.4579612922       19.3608436235      -13.5657941586  W2        3052            0.0000000000
      9156      3052  TIP3      H2              8.6451612922       20.2674536235      -14.4653941586  W2        3052            0.0000000000
      9157      3053  TIP3      OH2             9.0998712922       21.6834636235      -11.4980741586  W2        3053            0.0000000000
      9158      3053  TIP3      H1              8.9680912922       21.2078436235      -12.3182241586  W2        3053            0.0000000000
      9159      3053  TIP3      H2              8.5006112922       22.4278236235      -11.5533641586  W2        3053            0.0000000000
      9160      3054  TIP3      OH2             2.2145912922       33.2028736235      -28.8388641586  W2        3054            0.0000000000
      9161      3054  TIP3      H1              3.1285112922       33.2817636235      -28.5654741586  W2        3054            0.0000000000
      9162      3054  TIP3      H2              2.2219012922       32.5158336235      -29.5053041586  W2        3054            0.0000000000
      9163      3055  TIP3      OH2             1.7335712922       36.6764236235      -21.9568541586  W2        3055            0.0000000000
      9164      3055  TIP3      H1              1.3992512922       35.7961536235      -21.7848341586  W2        3055            0.0000000000
      9165      3055  TIP3      H2              1.9558112922       37.0219236235      -21.0922941586  W2        3055            0.0000000000
      9166      3056  TIP3      OH2            17.2960712922       32.8429836235      -11.4164341586  W2        3056            0.0000000000
      9167      3056  TIP3      H1             16.4301812922       32.7379536235      -11.0222041586  W2        3056            0.0000000000
      9168      3056  TIP3      H2             17.6726612922       33.6013136235      -10.9699641586  W2        3056            0.0000000000
      9169      3057  TIP3      OH2            18.5970412922       31.0993536235      -25.9021841586  W2        3057            0.0000000000
      9170      3057  TIP3      H1             19.4471812922       31.5204436235      -25.7750241586  W2        3057            0.0000000000
      9171      3057  TIP3      H2             18.6025512922       30.3593636235      -25.2950441586  W2        3057            0.0000000000
      9172      3058  TIP3      OH2            18.9916012922       29.1530936235      -24.0786141586  W2        3058            0.0000000000
      9173      3058  TIP3      H1             18.2650612922       28.6733536235      -23.6808541586  W2        3058            0.0000000000
      9174      3058  TIP3      H2             19.5729312922       29.3585636235      -23.3464541586  W2        3058            0.0000000000
      9175      3059  TIP3      OH2            18.7507212922       31.9378436235      -19.1308541586  W2        3059            0.0000000000
      9176      3059  TIP3      H1             19.5841412922       31.5598436235      -19.4114941586  W2        3059            0.0000000000
      9177      3059  TIP3      H2             18.8627512922       32.8809636235      -19.2499441586  W2        3059            0.0000000000
      9178      3060  TIP3      OH2            17.2369512922       34.8155936235      -16.8240141586  W2        3060            0.0000000000
      9179      3060  TIP3      H1             16.5894812922       35.1407436235      -16.1984941586  W2        3060            0.0000000000
      9180      3060  TIP3      H2             16.7193512922       34.3753636235      -17.4981841586  W2        3060            0.0000000000
      9181      3061  TIP3      OH2            19.2599112922       29.0539436235      -27.6874841586  W2        3061            0.0000000000
      9182      3061  TIP3      H1             18.7380212922       29.4103536235      -28.4063941586  W2        3061            0.0000000000
      9183      3061  TIP3      H2             19.2268312922       29.7287236235      -27.0093941586  W2        3061            0.0000000000
      9184      3062  TIP3      OH2            17.6088112922       26.2935036235      -29.1367741586  W2        3062            0.0000000000
      9185      3062  TIP3      H1             17.7052512922       26.9602036235      -29.8168041586  W2        3062            0.0000000000
      9186      3062  TIP3      H2             17.4687712922       25.4781336235      -29.6182241586  W2        3062            0.0000000000
      9187      3063  TIP3      OH2            16.7782812922       27.6737436235      -23.5157441586  W2        3063            0.0000000000
      9188      3063  TIP3      H1             16.6281612922       26.7286036235      -23.5359641586  W2        3063            0.0000000000
      9189      3063  TIP3      H2             16.4247312922       27.9548836235      -22.6718341586  W2        3063            0.0000000000
      9190      3064  TIP3      OH2             1.8135212922       29.7519636235      -19.5053641586  W2        3064            0.0000000000
      9191      3064  TIP3      H1              1.9978112922       29.6701336235      -20.4410741586  W2        3064            0.0000000000
      9192      3064  TIP3      H2              2.6628112922       29.6276636235      -19.0817241586  W2        3064            0.0000000000
      9193      3065  TIP3      OH2            17.6345712922       29.6440736235      -13.8769141586  W2        3065            0.0000000000
      9194      3065  TIP3      H1             18.2173012922       28.9093036235      -13.6851941586  W2        3065            0.0000000000
      9195      3065  TIP3      H2             18.1985012922       30.4161036235      -13.8303341586  W2        3065            0.0000000000
      9196      3066  TIP3      OH2            19.1312812922       27.5466536235      -13.1923741586  W2        3066            0.0000000000
      9197      3066  TIP3      H1             18.2679512922       27.1678636235      -13.3579041586  W2        3066            0.0000000000
      9198      3066  TIP3      H2             19.7356512922       26.8081336235      -13.2667941586  W2        3066            0.0000000000
      9199      3067  TIP3      OH2            16.8561912922       23.7014836235      -30.0192241586  W2        3067            0.0000000000
      9200      3067  TIP3      H1             17.4667712922       23.3301636235      -29.3824041586  W2        3067            0.0000000000
      9201      3067  TIP3      H2             16.0193412922       23.2801736235      -29.8232241586  W2        3067            0.0000000000
      9202      3068  TIP3      OH2            16.4887612922       25.2563236235      -25.0532341586  W2        3068            0.0000000000
      9203      3068  TIP3      H1             16.7684712922       24.3493636235      -24.9290641586  W2        3068            0.0000000000
      9204      3068  TIP3      H2             17.2479312922       25.6904736235      -25.4423141586  W2        3068            0.0000000000
      9205      3069  TIP3      OH2            17.1005912922       25.8380636235      -19.6173441586  W2        3069            0.0000000000
      9206      3069  TIP3      H1             18.0333912922       26.0500536235      -19.6517441586  W2        3069            0.0000000000
      9207      3069  TIP3      H2             16.8653412922       25.9392736235      -18.6950441586  W2        3069            0.0000000000
      9208      3070  TIP3      OH2            17.1297812922       26.5745936235      -16.8414041586  W2        3070            0.0000000000
      9209      3070  TIP3      H1             16.2869112922       26.8426336235      -16.4754241586  W2        3070            0.0000000000
      9210      3070  TIP3      H2             17.5722112922       27.3967836235      -17.0522941586  W2        3070            0.0000000000
      9211      3071  TIP3      OH2             1.4110012922       25.0224636235      -13.3644841586  W2        3071            0.0000000000
      9212      3071  TIP3      H1              2.3304912922       24.9002936235      -13.1281741586  W2        3071            0.0000000000
      9213      3071  TIP3      H2              0.9614512922       24.2724336235      -12.9751341586  W2        3071            0.0000000000
      9214      3072  TIP3      OH2            19.4129412922       20.5546136235      -11.4879041586  W2        3072            0.0000000000
      9215      3072  TIP3      H1             19.7626412922       19.9009636235      -12.0934341586  W2        3072            0.0000000000
      9216      3072  TIP3      H2             19.5598912922       21.3920236235      -11.9276441586  W2        3072            0.0000000000
      9217      3073  TIP3      OH2            17.1022412922       22.5192536235      -25.0050341586  W2        3073            0.0000000000
      9218      3073  TIP3      H1             17.2847412922       22.0704036235      -24.1795341586  W2        3073            0.0000000000
      9219      3073  TIP3      H2             16.5025312922       21.9346936235      -25.4685741586  W2        3073            0.0000000000
      9220      3074  TIP3      OH2             2.6322512922       23.3346236235      -20.4731941586  W2        3074            0.0000000000
      9221      3074  TIP3      H1              3.0774112922       22.5428736235      -20.1712241586  W2        3074            0.0000000000
      9222      3074  TIP3      H2              3.0985512922       24.0511436235      -20.0426341586  W2        3074            0.0000000000
      9223      3075  TIP3      OH2             0.9362812922       26.3339236235      -19.4041741586  W2        3075            0.0000000000
      9224      3075  TIP3      H1              1.4282612922       26.1129736235      -20.1949741586  W2        3075            0.0000000000
      9225      3075  TIP3      H2              1.2983712922       27.1742636235      -19.1232241586  W2        3075            0.0000000000
      9226      3076  TIP3      OH2            18.9326612922       22.6640736235      -13.1387741586  W2        3076            0.0000000000
      9227      3076  TIP3      H1             18.0152312922       22.9347836235      -13.1744241586  W2        3076            0.0000000000
      9228      3076  TIP3      H2             19.0556012922       22.1289136235      -13.9228041586  W2        3076            0.0000000000
      9229      3077  TIP3      OH2            18.9688612922       22.5870636235      -28.4770041586  W2        3077            0.0000000000
      9230      3077  TIP3      H1             19.3811212922       21.8656336235      -28.9522041586  W2        3077            0.0000000000
      9231      3077  TIP3      H2             19.6505112922       23.2565236235      -28.4185741586  W2        3077            0.0000000000
      9232      3078  TIP3      OH2             1.2499312922       22.5918336235      -25.3499341586  W2        3078            0.0000000000
      9233      3078  TIP3      H1              0.3247712922       22.8004936235      -25.4793841586  W2        3078            0.0000000000
      9234      3078  TIP3      H2              1.7039212922       23.0759136235      -26.0397041586  W2        3078            0.0000000000
      9235      3079  TIP3      OH2             1.2134712922       21.3297336235      -17.0056841586  W2        3079            0.0000000000
      9236      3079  TIP3      H1              0.5485212922       21.0837636235      -16.3625941586  W2        3079            0.0000000000
      9237      3079  TIP3      H2              0.7706012922       21.9517736235      -17.5828841586  W2        3079            0.0000000000
      9238      3080  TIP3      OH2             3.4054012922       34.5051436235      -12.8611041586  W2        3080            0.0000000000
      9239      3080  TIP3      H1              2.5846512922       34.6797936235      -13.3216341586  W2        3080            0.0000000000
      9240      3080  TIP3      H2              3.1531812922       34.4316136235      -11.9406641586  W2        3080            0.0000000000
      9241      3081  TIP3      OH2             6.3596912922       35.4792636235      -16.6027041586  W2        3081            0.0000000000
      9242      3081  TIP3      H1              5.9348012922       36.2891136235      -16.8852441586  W2        3081            0.0000000000
      9243      3081  TIP3      H2              7.2639712922       35.5646736235      -16.9047241586  W2        3081            0.0000000000
      9244      3082  TIP3      OH2            17.9332512922       20.7537036235      -15.3196941586  W2        3082            0.0000000000
      9245      3082  TIP3      H1             17.1206012922       21.0787336235      -15.7072241586  W2        3082            0.0000000000
      9246      3082  TIP3      H2             18.1661012922       19.9935536235      -15.8527841586  W2        3082            0.0000000000
      9247      3083  TIP3      OH2             5.3174812922       36.0687736235      -20.9900041586  W2        3083            0.0000000000
      9248      3083  TIP3      H1              5.0985512922       35.1525136235      -20.8204041586  W2        3083            0.0000000000
      9249      3083  TIP3      H2              6.1417012922       36.2088136235      -20.5238641586  W2        3083            0.0000000000
      9250      3084  TIP3      OH2             7.8547312922       36.5387036235      -20.1412041586  W2        3084            0.0000000000
      9251      3084  TIP3      H1              8.0673012922       35.6506036235      -20.4281141586  W2        3084            0.0000000000
      9252      3084  TIP3      H2              7.9192412922       36.5044736235      -19.1868041586  W2        3084            0.0000000000
      9253      3085  TIP3      OH2            11.3631012922       22.2027636235      -20.9968741586  W2        3085            0.0000000000
      9254      3085  TIP3      H1             10.6887812922       21.5733236235      -20.7412941586  W2        3085            0.0000000000
      9255      3085  TIP3      H2             11.9270212922       21.7186536235      -21.6000841586  W2        3085            0.0000000000
      9256      3086  TIP3      OH2            16.5058212922       20.3101636235      -20.8841641586  W2        3086            0.0000000000
      9257      3086  TIP3      H1             17.1095812922       20.8577036235      -21.3860641586  W2        3086            0.0000000000
      9258      3086  TIP3      H2             15.6360212922       20.6292036235      -21.1247541586  W2        3086            0.0000000000
      9259      3087  TIP3      OH2            18.2328612922       21.4490336235      -22.5510741586  W2        3087            0.0000000000
      9260      3087  TIP3      H1             18.8446112922       20.9346036235      -23.0777141586  W2        3087            0.0000000000
      9261      3087  TIP3      H2             18.6152012922       22.3262436235      -22.5276341586  W2        3087            0.0000000000
      9262      3088  TIP3      OH2             3.6898512922       20.8367936235      -23.1748841586  W2        3088            0.0000000000
      9263      3088  TIP3      H1              2.9128312922       20.6022836235      -23.6822941586  W2        3088            0.0000000000
      9264      3088  TIP3      H2              4.2202112922       20.0400036235      -23.1660841586  W2        3088            0.0000000000
      9265      3089  TIP3      OH2             2.5261912922       20.6346036235      -27.3712741586  W2        3089            0.0000000000
      9266      3089  TIP3      H1              2.9652612922       21.2456536235      -27.9629241586  W2        3089            0.0000000000
      9267      3089  TIP3      H2              1.8924312922       21.1730136235      -26.8972741586  W2        3089            0.0000000000
      9268      3090  TIP3      OH2             8.2691112922       20.7635036235      -23.3615741586  W2        3090            0.0000000000
      9269      3090  TIP3      H1              9.1434512922       21.1519336235      -23.3911441586  W2        3090            0.0000000000
      9270      3090  TIP3      H2              8.1331912922       20.5482836235      -22.4388541586  W2        3090            0.0000000000
      9271      3091  TIP3      OH2            13.8259512922       20.7934836235      -21.7124041586  W2        3091            0.0000000000
      9272      3091  TIP3      H1             13.9021112922       20.8886436235      -22.6618041586  W2        3091            0.0000000000
      9273      3091  TIP3      H2             13.5508712922       19.8857736235      -21.5834941586  W2        3091            0.0000000000
      9274      3092  TIP3      OH2            15.1792112922       20.8192636235      -26.0199041586  W2        3092            0.0000000000
      9275      3092  TIP3      H1             14.4763212922       21.4341836235      -26.2297641586  W2        3092            0.0000000000
      9276      3092  TIP3      H2             14.7343512922       19.9819336235      -25.8888141586  W2        3092            0.0000000000
      9277      3093  TIP3      OH2             2.4271412922       36.5828236235      -26.4737641586  W2        3093            0.0000000000
      9278      3093  TIP3      H1              1.7421312922       36.5447136235      -27.1412541586  W2        3093            0.0000000000
      9279      3093  TIP3      H2              2.4308612922       37.4955836235      -26.1855541586  W2        3093            0.0000000000
      9280      3094  TIP3      OH2             4.3871012922       22.5507536235      -28.9288641586  W2        3094            0.0000000000
      9281      3094  TIP3      H1              4.8784412922       21.9209936235      -29.4563141586  W2        3094            0.0000000000
      9282      3094  TIP3      H2              5.0107312922       22.8466936235      -28.2657441586  W2        3094            0.0000000000
      9283      3095  TIP3      OH2             9.4131112922       22.8439036235      -26.4718141586  W2        3095            0.0000000000
      9284      3095  TIP3      H1              9.5912412922       22.1972236235      -25.7889541586  W2        3095            0.0000000000
      9285      3095  TIP3      H2              9.3597312922       23.6776736235      -26.0047041586  W2        3095            0.0000000000
      9286      3096  TIP3      OH2             3.6476512922       21.3509836235      -13.6572641586  W2        3096            0.0000000000
      9287      3096  TIP3      H1              3.2814712922       20.5852436235      -13.2147941586  W2        3096            0.0000000000
      9288      3096  TIP3      H2              4.5605012922       21.3800036235      -13.3707541586  W2        3096            0.0000000000
      9289      3097  TIP3      OH2             5.6207312922       20.7014236235      -12.1215541586  W2        3097            0.0000000000
      9290      3097  TIP3      H1              6.5190912922       20.4274436235      -12.3062141586  W2        3097            0.0000000000
      9291      3097  TIP3      H2              5.2340412922       19.9590236235      -11.6572941586  W2        3097            0.0000000000
      9292      3098  TIP3      OH2            14.0419612922       20.0339536235      -11.9392741586  W2        3098            0.0000000000
      9293      3098  TIP3      H1             14.1186812922       19.6080236235      -11.0855041586  W2        3098            0.0000000000
      9294      3098  TIP3      H2             14.9356212922       20.0474236235      -12.2819241586  W2        3098            0.0000000000
      9295      3099  TIP3      OH2            17.2180712922       36.1065836235      -13.2468541586  W2        3099            0.0000000000
      9296      3099  TIP3      H1             16.4362612922       35.9203836235      -13.7667941586  W2        3099            0.0000000000
      9297      3099  TIP3      H2             17.1460612922       37.0360136235      -13.0296041586  W2        3099            0.0000000000
      9298      3100  TIP3      OH2            31.6241112922       29.9930236235      -23.2161341586  W2        3100            0.0000000000
      9299      3100  TIP3      H1             31.7132212922       30.9368436235      -23.3484241586  W2        3100            0.0000000000
      9300      3100  TIP3      H2             30.9858712922       29.7176636235      -23.8741941586  W2        3100            0.0000000000
      9301      3101  TIP3      OH2            30.5572412922       29.2480936235      -19.7973141586  W2        3101            0.0000000000
      9302      3101  TIP3      H1             30.5189912922       28.6017236235      -19.0923541586  W2        3101            0.0000000000
      9303      3101  TIP3      H2             30.2348912922       28.7815336235      -20.5684441586  W2        3101            0.0000000000
      9304      3102  TIP3      OH2            22.9257412922       28.8623036235      -18.2043241586  W2        3102            0.0000000000
      9305      3102  TIP3      H1             22.9669512922       28.2366336235      -17.4810841586  W2        3102            0.0000000000
      9306      3102  TIP3      H2             23.6285112922       29.4861636235      -18.0222841586  W2        3102            0.0000000000
      9307      3103  TIP3      OH2            34.2632612922       32.1871336235      -21.4958041586  W2        3103            0.0000000000
      9308      3103  TIP3      H1             33.8225312922       31.4667336235      -21.0452441586  W2        3103            0.0000000000
      9309      3103  TIP3      H2             34.2502312922       32.9078536235      -20.8660341586  W2        3103            0.0000000000
      9310      3104  TIP3      OH2            23.8490512922       33.3121936235      -19.6694141586  W2        3104            0.0000000000
      9311      3104  TIP3      H1             23.4795712922       32.5102436235      -20.0389841586  W2        3104            0.0000000000
      9312      3104  TIP3      H2             24.7901612922       33.1436836235      -19.6230741586  W2        3104            0.0000000000
      9313      3105  TIP3      OH2            20.4591012922       26.9724536235      -24.2765341586  W2        3105            0.0000000000
      9314      3105  TIP3      H1             20.0114412922       27.8183236235      -24.2948841586  W2        3105            0.0000000000
      9315      3105  TIP3      H2             19.8982212922       26.3928736235      -24.7920241586  W2        3105            0.0000000000
      9316      3106  TIP3      OH2            21.1697112922       29.1344136235      -22.1507341586  W2        3106            0.0000000000
      9317      3106  TIP3      H1             21.3830612922       28.3645736235      -21.6234341586  W2        3106            0.0000000000
      9318      3106  TIP3      H2             21.9074712922       29.2240836235      -22.7539741586  W2        3106            0.0000000000
      9319      3107  TIP3      OH2            28.9466812922       31.6802336235      -19.3912141586  W2        3107            0.0000000000
      9320      3107  TIP3      H1             29.2504712922       30.9943736235      -19.9858041586  W2        3107            0.0000000000
      9321      3107  TIP3      H2             29.6680812922       31.7991036235      -18.7734141586  W2        3107            0.0000000000
      9322      3108  TIP3      OH2            32.0873812922       26.0744736235      -19.0637341586  W2        3108            0.0000000000
      9323      3108  TIP3      H1             32.2299712922       25.1281736235      -19.0435741586  W2        3108            0.0000000000
      9324      3108  TIP3      H2             31.9812812922       26.2814536235      -19.9922441586  W2        3108            0.0000000000
      9325      3109  TIP3      OH2            25.2422112922       24.1761136235      -21.7912541586  W2        3109            0.0000000000
      9326      3109  TIP3      H1             25.2853212922       25.0359636235      -22.2096241586  W2        3109            0.0000000000
      9327      3109  TIP3      H2             24.7846212922       23.6235836235      -22.4249341586  W2        3109            0.0000000000
      9328      3110  TIP3      OH2            32.9644812922       24.3066736235      -23.3904241586  W2        3110            0.0000000000
      9329      3110  TIP3      H1             33.6109112922       23.9779936235      -22.7656641586  W2        3110            0.0000000000
      9330      3110  TIP3      H2             33.4744212922       24.8245736235      -24.0132841586  W2        3110            0.0000000000
      9331      3111  TIP3      OH2            21.8623612922       26.5726936235      -21.0291141586  W2        3111            0.0000000000
      9332      3111  TIP3      H1             22.5160212922       26.0228636235      -20.5971041586  W2        3111            0.0000000000
      9333      3111  TIP3      H2             21.8862912922       26.2985936235      -21.9459141586  W2        3111            0.0000000000
      9334      3112  TIP3      OH2            27.0188112922       28.1228236235      -21.8139641586  W2        3112            0.0000000000
      9335      3112  TIP3      H1             27.6349112922       27.5963636235      -21.3045641586  W2        3112            0.0000000000
      9336      3112  TIP3      H2             26.4326912922       27.4826936235      -22.2176041586  W2        3112            0.0000000000
      9337      3113  TIP3      OH2            24.0524012922       23.0939536235      -17.7171741586  W2        3113            0.0000000000
      9338      3113  TIP3      H1             23.8335712922       23.6240136235      -18.4835741586  W2        3113            0.0000000000
      9339      3113  TIP3      H2             23.3844912922       23.3205036235      -17.0700341586  W2        3113            0.0000000000
      9340      3114  TIP3      OH2            31.4213812922       32.5940636235      -24.1732641586  W2        3114            0.0000000000
      9341      3114  TIP3      H1             31.1258912922       32.2712936235      -25.0245741586  W2        3114            0.0000000000
      9342      3114  TIP3      H2             31.0971612922       33.4937336235      -24.1320041586  W2        3114            0.0000000000
      9343      3115  TIP3      OH2            26.6215412922       30.7695236235      -17.4298041586  W2        3115            0.0000000000
      9344      3115  TIP3      H1             25.8814512922       31.3676736235      -17.3262841586  W2        3115            0.0000000000
      9345      3115  TIP3      H2             27.3354912922       31.3234836235      -17.7454441586  W2        3115            0.0000000000
      9346      3116  TIP3      OH2            34.7283212922       23.5976036235      -21.4098341586  W2        3116            0.0000000000
      9347      3116  TIP3      H1             34.5131212922       22.8319436235      -20.8772341586  W2        3116            0.0000000000
      9348      3116  TIP3      H2             35.3840612922       24.0700636235      -20.8969841586  W2        3116            0.0000000000
      9349      3117  TIP3      OH2            23.6461312922       24.9861336235      -19.7649541586  W2        3117            0.0000000000
      9350      3117  TIP3      H1             24.2597612922       25.6188936235      -19.3917141586  W2        3117            0.0000000000
      9351      3117  TIP3      H2             24.1582012922       24.5136336235      -20.4212641586  W2        3117            0.0000000000
      9352      3118  TIP3      OH2            25.0289712922       32.7338236235      -16.6426541586  W2        3118            0.0000000000
      9353      3118  TIP3      H1             25.0237312922       33.6131736235      -17.0207241586  W2        3118            0.0000000000
      9354      3118  TIP3      H2             24.1753812922       32.6502336235      -16.2176641586  W2        3118            0.0000000000
      9355      3119  TIP3      OH2            21.1500612922       32.4046136235      -25.8607241586  W2        3119            0.0000000000
      9356      3119  TIP3      H1             20.8781512922       32.6337136235      -26.7494341586  W2        3119            0.0000000000
      9357      3119  TIP3      H2             21.1956312922       33.2424936235      -25.4001941586  W2        3119            0.0000000000
      9358      3120  TIP3      OH2            34.7750312922       34.0262036235      -19.1478741586  W2        3120            0.0000000000
      9359      3120  TIP3      H1             33.8334012922       34.0845936235      -18.9861841586  W2        3120            0.0000000000
      9360      3120  TIP3      H2             35.0516412922       34.9322536235      -19.2849041586  W2        3120            0.0000000000
      9361      3121  TIP3      OH2            35.0757312922       22.3127336235      -17.7304841586  W2        3121            0.0000000000
      9362      3121  TIP3      H1             34.3396512922       22.9234436235      -17.7683541586  W2        3121            0.0000000000
      9363      3121  TIP3      H2             35.7591312922       22.7276336235      -18.2568441586  W2        3121            0.0000000000
      9364      3122  TIP3      OH2            28.0788712922       20.3994636235      -20.2646841586  W2        3122            0.0000000000
      9365      3122  TIP3      H1             27.9612912922       19.4510636235      -20.3188541586  W2        3122            0.0000000000
      9366      3122  TIP3      H2             27.2238812922       20.7320736235      -19.9915741586  W2        3122            0.0000000000
      9367      3123  TIP3      OH2            33.0271512922       35.8075536235      -22.5227141586  W2        3123            0.0000000000
      9368      3123  TIP3      H1             33.4523812922       35.1003436235      -23.0077541586  W2        3123            0.0000000000
      9369      3123  TIP3      H2             33.3441512922       36.6088236235      -22.9394941586  W2        3123            0.0000000000
      9370      3124  TIP3      OH2            34.1868012922       33.7084036235      -24.0140541586  W2        3124            0.0000000000
      9371      3124  TIP3      H1             33.9292812922       33.0184136235      -24.6254641586  W2        3124            0.0000000000
      9372      3124  TIP3      H2             34.2578812922       33.2655236235      -23.1684641586  W2        3124            0.0000000000
      9373      3125  TIP3      OH2            35.8728212922       32.2750736235      -15.5367041586  W2        3125            0.0000000000
      9374      3125  TIP3      H1             36.0124512922       31.6833236235      -16.2760041586  W2        3125            0.0000000000
      9375      3125  TIP3      H2             36.0401012922       33.1476636235      -15.8928241586  W2        3125            0.0000000000
      9376      3126  TIP3      OH2            30.3453612922       29.2370236235      -25.7641041586  W2        3126            0.0000000000
      9377      3126  TIP3      H1             29.6339112922       29.7719936235      -26.1160541586  W2        3126            0.0000000000
      9378      3126  TIP3      H2             31.0363212922       29.2922336235      -26.4242141586  W2        3126            0.0000000000
      9379      3127  TIP3      OH2            30.3992812922       27.6944536235      -28.7256041586  W2        3127            0.0000000000
      9380      3127  TIP3      H1             31.1002712922       27.7171436235      -28.0742041586  W2        3127            0.0000000000
      9381      3127  TIP3      H2             30.7015712922       27.0664236235      -29.3816741586  W2        3127            0.0000000000
      9382      3128  TIP3      OH2            33.7511312922       29.4463536235      -24.8125141586  W2        3128            0.0000000000
      9383      3128  TIP3      H1             33.0192312922       29.6747236235      -24.2394541586  W2        3128            0.0000000000
      9384      3128  TIP3      H2             34.1983512922       28.7326236235      -24.3577641586  W2        3128            0.0000000000
      9385      3129  TIP3      OH2            33.6484812922       27.6206136235      -15.7448141586  W2        3129            0.0000000000
      9386      3129  TIP3      H1             33.7283912922       28.3840536235      -15.1729641586  W2        3129            0.0000000000
      9387      3129  TIP3      H2             33.0472512922       27.8998536235      -16.4353041586  W2        3129            0.0000000000
      9388      3130  TIP3      OH2            25.3965012922       30.0769736235      -22.9300141586  W2        3130            0.0000000000
      9389      3130  TIP3      H1             25.0660212922       29.7063136235      -23.7483141586  W2        3130            0.0000000000
      9390      3130  TIP3      H2             25.9849112922       29.4063736235      -22.5831841586  W2        3130            0.0000000000
      9391      3131  TIP3      OH2            26.7632512922       33.5050336235      -20.2487941586  W2        3131            0.0000000000
      9392      3131  TIP3      H1             26.6683812922       32.9263436235      -21.0053341586  W2        3131            0.0000000000
      9393      3131  TIP3      H2             27.4926112922       33.1336036235      -19.7525141586  W2        3131            0.0000000000
      9394      3132  TIP3      OH2            25.7630512922       28.8455336235      -19.2965141586  W2        3132            0.0000000000
      9395      3132  TIP3      H1             26.3283012922       28.9669536235      -20.0593941586  W2        3132            0.0000000000
      9396      3132  TIP3      H2             26.0819412922       29.4830336235      -18.6576641586  W2        3132            0.0000000000
      9397      3133  TIP3      OH2            32.0722712922       34.3487236235      -18.5624641586  W2        3133            0.0000000000
      9398      3133  TIP3      H1             31.8319312922       35.0110336235      -17.9145441586  W2        3133            0.0000000000
      9399      3133  TIP3      H2             31.8740912922       33.5142436235      -18.1375041586  W2        3133            0.0000000000
      9400      3134  TIP3      OH2            26.6431212922       33.2448036235      -14.5793241586  W2        3134            0.0000000000
      9401      3134  TIP3      H1             26.3318712922       34.0271236235      -14.1240041586  W2        3134            0.0000000000
      9402      3134  TIP3      H2             25.9931412922       33.0917136235      -15.2651241586  W2        3134            0.0000000000
      9403      3135  TIP3      OH2            32.6220812922       28.6086436235      -27.1273941586  W2        3135            0.0000000000
      9404      3135  TIP3      H1             33.2016312922       28.7586736235      -26.3805041586  W2        3135            0.0000000000
      9405      3135  TIP3      H2             33.0360812922       29.0793836235      -27.8507541586  W2        3135            0.0000000000
      9406      3136  TIP3      OH2            23.5631112922       29.4429136235      -15.3507541586  W2        3136            0.0000000000
      9407      3136  TIP3      H1             23.6334312922       30.0935936235      -14.6522541586  W2        3136            0.0000000000
      9408      3136  TIP3      H2             22.6723312922       29.5456636235      -15.6856641586  W2        3136            0.0000000000
      9409      3137  TIP3      OH2            30.3485712922       35.3454936235      -23.6920841586  W2        3137            0.0000000000
      9410      3137  TIP3      H1             30.8223312922       35.6411236235      -22.9146641586  W2        3137            0.0000000000
      9411      3137  TIP3      H2             29.7855012922       36.0836536235      -23.9251241586  W2        3137            0.0000000000
      9412      3138  TIP3      OH2            24.8827112922       35.3163036235      -13.8159441586  W2        3138            0.0000000000
      9413      3138  TIP3      H1             24.8902412922       35.1802736235      -14.7633941586  W2        3138            0.0000000000
      9414      3138  TIP3      H2             23.9667512922       35.1991136235      -13.5639441586  W2        3138            0.0000000000
      9415      3139  TIP3      OH2            36.3209212922       20.3586836235      -27.3144241586  W2        3139            0.0000000000
      9416      3139  TIP3      H1             35.4209912922       20.4975836235      -27.0193641586  W2        3139            0.0000000000
      9417      3139  TIP3      H2             36.5727612922       21.1901436235      -27.7162541586  W2        3139            0.0000000000
      9418      3140  TIP3      OH2            24.3867712922       29.1464036235      -25.3407341586  W2        3140            0.0000000000
      9419      3140  TIP3      H1             24.0949012922       29.9145736235      -25.8316041586  W2        3140            0.0000000000
      9420      3140  TIP3      H2             23.7122912922       28.4870236235      -25.5035941586  W2        3140            0.0000000000
      9421      3141  TIP3      OH2            20.4797812922       31.5093236235      -16.5257541586  W2        3141            0.0000000000
      9422      3141  TIP3      H1             19.9786212922       31.4812636235      -17.3407841586  W2        3141            0.0000000000
      9423      3141  TIP3      H2             20.4851512922       30.6036436235      -16.2160241586  W2        3141            0.0000000000
      9424      3142  TIP3      OH2            20.2300512922       34.2897036235      -19.6417341586  W2        3142            0.0000000000
      9425      3142  TIP3      H1             21.1761112922       34.1454036235      -19.6607841586  W2        3142            0.0000000000
      9426      3142  TIP3      H2             20.1176812922       35.0739836235      -19.1046141586  W2        3142            0.0000000000
      9427      3143  TIP3      OH2            29.4063012922       34.5295936235      -15.0832241586  W2        3143            0.0000000000
      9428      3143  TIP3      H1             29.4937612922       35.3560536235      -14.6083141586  W2        3143            0.0000000000
      9429      3143  TIP3      H2             28.5428112922       34.1999736235      -14.8342941586  W2        3143            0.0000000000
      9430      3144  TIP3      OH2            35.5798812922       26.4489236235      -13.4791441586  W2        3144            0.0000000000
      9431      3144  TIP3      H1             35.1725612922       26.9294836235      -14.1998141586  W2        3144            0.0000000000
      9432      3144  TIP3      H2             35.6204512922       25.5435236235      -13.7870641586  W2        3144            0.0000000000
      9433      3145  TIP3      OH2            22.7288312922       32.8328636235      -15.4824741586  W2        3145            0.0000000000
      9434      3145  TIP3      H1             22.9449612922       32.4714236235      -14.6228941586  W2        3145            0.0000000000
      9435      3145  TIP3      H2             21.8733012922       32.4582436235      -15.6921241586  W2        3145            0.0000000000
      9436      3146  TIP3      OH2            25.3476312922       21.3029136235      -19.4870541586  W2        3146            0.0000000000
      9437      3146  TIP3      H1             24.4860012922       21.2157336235      -19.8947641586  W2        3146            0.0000000000
      9438      3146  TIP3      H2             25.3252012922       22.1589236235      -19.0592941586  W2        3146            0.0000000000
      9439      3147  TIP3      OH2            30.0104112922       21.0249536235      -16.1123541586  W2        3147            0.0000000000
      9440      3147  TIP3      H1             30.4307212922       20.6096636235      -15.3592941586  W2        3147            0.0000000000
      9441      3147  TIP3      H2             29.0773712922       20.8462836235      -15.9951541586  W2        3147            0.0000000000
      9442      3148  TIP3      OH2            33.3369012922       24.7804736235      -15.2589041586  W2        3148            0.0000000000
      9443      3148  TIP3      H1             32.8228512922       24.6546936235      -14.4613041586  W2        3148            0.0000000000
      9444      3148  TIP3      H2             33.1813712922       25.6927836235      -15.5032841586  W2        3148            0.0000000000
      9445      3149  TIP3      OH2            34.0993912922       29.6414736235      -29.4976041586  W2        3149            0.0000000000
      9446      3149  TIP3      H1             34.1414712922       29.4188636235      -30.4276041586  W2        3149            0.0000000000
      9447      3149  TIP3      H2             34.9486012922       30.0401836235      -29.3076141586  W2        3149            0.0000000000
      9448      3150  TIP3      OH2            29.6721412922       23.5172936235      -28.8272741586  W2        3150            0.0000000000
      9449      3150  TIP3      H1             29.4186212922       23.5364536235      -27.9044641586  W2        3150            0.0000000000
      9450      3150  TIP3      H2             29.4153512922       22.6458336235      -29.1286541586  W2        3150            0.0000000000
      9451      3151  TIP3      OH2            25.4386412922       26.2683636235      -18.3920341586  W2        3151            0.0000000000
      9452      3151  TIP3      H1             24.7968512922       26.2280936235      -17.6830241586  W2        3151            0.0000000000
      9453      3151  TIP3      H2             25.4758412922       27.1948336235      -18.6297341586  W2        3151            0.0000000000
      9454      3152  TIP3      OH2            25.4355512922       26.4893736235      -23.4800341586  W2        3152            0.0000000000
      9455      3152  TIP3      H1             24.5428412922       26.1489836235      -23.5386541586  W2        3152            0.0000000000
      9456      3152  TIP3      H2             25.8862112922       26.1124636235      -24.2357141586  W2        3152            0.0000000000
      9457      3153  TIP3      OH2            30.9711012922       26.9054036235      -24.6629541586  W2        3153            0.0000000000
      9458      3153  TIP3      H1             30.5621312922       27.7202636235      -24.9544741586  W2        3153            0.0000000000
      9459      3153  TIP3      H2             31.6917212922       26.7654136235      -25.2772441586  W2        3153            0.0000000000
      9460      3154  TIP3      OH2            30.0732612922       27.0810436235      -13.1748841586  W2        3154            0.0000000000
      9461      3154  TIP3      H1             29.5106412922       26.3762036235      -12.8541041586  W2        3154            0.0000000000
      9462      3154  TIP3      H2             30.8996012922       26.9602336235      -12.7071241586  W2        3154            0.0000000000
      9463      3155  TIP3      OH2            31.9758712922       26.3514436235      -21.8489841586  W2        3155            0.0000000000
      9464      3155  TIP3      H1             31.7803212922       26.9571236235      -22.5639241586  W2        3155            0.0000000000
      9465      3155  TIP3      H2             32.1571312922       25.5179636235      -22.2833541586  W2        3155            0.0000000000
      9466      3156  TIP3      OH2            23.1886912922       26.5887136235      -16.5248341586  W2        3156            0.0000000000
      9467      3156  TIP3      H1             23.1506312922       26.9888736235      -15.6561241586  W2        3156            0.0000000000
      9468      3156  TIP3      H2             22.6978012922       25.7719536235      -16.4345441586  W2        3156            0.0000000000
      9469      3157  TIP3      OH2            26.5544312922       23.9629436235      -29.7262341586  W2        3157            0.0000000000
      9470      3157  TIP3      H1             26.1235012922       23.5179536235      -28.9964941586  W2        3157            0.0000000000
      9471      3157  TIP3      H2             25.8363012922       24.3345736235      -30.2384841586  W2        3157            0.0000000000
      9472      3158  TIP3      OH2            19.7967712922       23.7048936235      -22.6743641586  W2        3158            0.0000000000
      9473      3158  TIP3      H1             20.4275412922       23.6761036235      -21.9549741586  W2        3158            0.0000000000
      9474      3158  TIP3      H2             20.2462012922       23.2797636235      -23.4047741586  W2        3158            0.0000000000
      9475      3159  TIP3      OH2            21.0709812922       24.4510936235      -27.2503241586  W2        3159            0.0000000000
      9476      3159  TIP3      H1             21.5451512922       25.0420836235      -27.8352341586  W2        3159            0.0000000000
      9477      3159  TIP3      H2             20.3536212922       24.9813836235      -26.9033141586  W2        3159            0.0000000000
      9478      3160  TIP3      OH2            31.2397912922       27.9895736235      -17.1777441586  W2        3160            0.0000000000
      9479      3160  TIP3      H1             31.5632712922       27.3585436235      -17.8206941586  W2        3160            0.0000000000
      9480      3160  TIP3      H2             30.7997212922       27.4547936235      -16.5170041586  W2        3160            0.0000000000
      9481      3161  TIP3      OH2            28.0170812922       23.9171236235      -22.3936241586  W2        3161            0.0000000000
      9482      3161  TIP3      H1             27.1061912922       23.9738036235      -22.1050241586  W2        3161            0.0000000000
      9483      3161  TIP3      H2             28.5223712922       23.8566736235      -21.5829041586  W2        3161            0.0000000000
      9484      3162  TIP3      OH2            22.8454212922       25.5457536235      -23.5668641586  W2        3162            0.0000000000
      9485      3162  TIP3      H1             21.9562212922       25.6453036235      -23.9069041586  W2        3162            0.0000000000
      9486      3162  TIP3      H2             23.1419112922       24.7040536235      -23.9130741586  W2        3162            0.0000000000
      9487      3163  TIP3      OH2            26.4986012922       25.5460136235      -25.9104041586  W2        3163            0.0000000000
      9488      3163  TIP3      H1             27.4301512922       25.6750136235      -25.7320941586  W2        3163            0.0000000000
      9489      3163  TIP3      H2             26.2836312922       26.2154436235      -26.5599341586  W2        3163            0.0000000000
      9490      3164  TIP3      OH2            32.4222712922       23.1517536235      -19.1294441586  W2        3164            0.0000000000
      9491      3164  TIP3      H1             31.7454312922       23.2830636235      -18.4654741586  W2        3164            0.0000000000
      9492      3164  TIP3      H2             31.9367612922       22.9967036235      -19.9396741586  W2        3164            0.0000000000
      9493      3165  TIP3      OH2            25.1726212922       26.7402336235      -28.3437941586  W2        3165            0.0000000000
      9494      3165  TIP3      H1             24.6301312922       26.3606136235      -29.0350341586  W2        3165            0.0000000000
      9495      3165  TIP3      H2             26.0061112922       26.9347036235      -28.7723841586  W2        3165            0.0000000000
      9496      3166  TIP3      OH2            23.3077612922       31.2974236235      -13.2446341586  W2        3166            0.0000000000
      9497      3166  TIP3      H1             24.0400012922       31.5520136235      -12.6831841586  W2        3166            0.0000000000
      9498      3166  TIP3      H2             22.5276312922       31.5019636235      -12.7290941586  W2        3166            0.0000000000
      9499      3167  TIP3      OH2            29.3370512922       26.7044236235      -20.5066641586  W2        3167            0.0000000000
      9500      3167  TIP3      H1             29.9013912922       26.1580836235      -21.0537041586  W2        3167            0.0000000000
      9501      3167  TIP3      H2             29.1893912922       26.1826136235      -19.7179041586  W2        3167            0.0000000000
      9502      3168  TIP3      OH2            24.3390212922       22.8410336235      -24.0881841586  W2        3168            0.0000000000
      9503      3168  TIP3      H1             24.0219712922       21.9385636235      -24.1236441586  W2        3168            0.0000000000
      9504      3168  TIP3      H2             25.1204312922       22.8427736235      -24.6410241586  W2        3168            0.0000000000
      9505      3169  TIP3      OH2            27.9636412922       25.0930336235      -18.0926241586  W2        3169            0.0000000000
      9506      3169  TIP3      H1             27.1281712922       25.5469836235      -17.9823841586  W2        3169            0.0000000000
      9507      3169  TIP3      H2             28.4877012922       25.3688836235      -17.3406341586  W2        3169            0.0000000000
      9508      3170  TIP3      OH2            28.5079012922       31.3058036235      -26.4079841586  W2        3170            0.0000000000
      9509      3170  TIP3      H1             27.7630012922       30.7983336235      -26.7301941586  W2        3170            0.0000000000
      9510      3170  TIP3      H2             28.3736212922       31.3546036235      -25.4615041586  W2        3170            0.0000000000
      9511      3171  TIP3      OH2            35.6577912922       30.4386236235      -17.6212241586  W2        3171            0.0000000000
      9512      3171  TIP3      H1             36.2996712922       30.8952536235      -18.1650041586  W2        3171            0.0000000000
      9513      3171  TIP3      H2             34.8274812922       30.5518636235      -18.0838141586  W2        3171            0.0000000000
      9514      3172  TIP3      OH2            32.4055812922       24.1197936235      -28.2087241586  W2        3172            0.0000000000
      9515      3172  TIP3      H1             31.4670012922       24.2313536235      -28.3598441586  W2        3172            0.0000000000
      9516      3172  TIP3      H2             32.7027912922       24.9764836235      -27.9021541586  W2        3172            0.0000000000
      9517      3173  TIP3      OH2            30.0271112922       31.4901336235      -15.1710741586  W2        3173            0.0000000000
      9518      3173  TIP3      H1             29.6817212922       31.1083736235      -14.3641141586  W2        3173            0.0000000000
      9519      3173  TIP3      H2             29.8271212922       32.4234936235      -15.0997841586  W2        3173            0.0000000000
      9520      3174  TIP3      OH2            33.1239312922       25.9870636235      -26.5479841586  W2        3174            0.0000000000
      9521      3174  TIP3      H1             34.0158312922       25.8495636235      -26.2288641586  W2        3174            0.0000000000
      9522      3174  TIP3      H2             33.1802912922       26.7776736235      -27.0846341586  W2        3174            0.0000000000
      9523      3175  TIP3      OH2            23.6327312922       30.6008036235      -20.6381941586  W2        3175            0.0000000000
      9524      3175  TIP3      H1             24.3774512922       30.5983736235      -21.2395441586  W2        3175            0.0000000000
      9525      3175  TIP3      H2             23.7103912922       29.7771836235      -20.1566841586  W2        3175            0.0000000000
      9526      3176  TIP3      OH2            30.6333112922       32.7642336235      -27.3825241586  W2        3176            0.0000000000
      9527      3176  TIP3      H1             30.3381512922       33.5910236235      -27.0010441586  W2        3176            0.0000000000
      9528      3176  TIP3      H2             29.9303112922       32.1449236235      -27.1863841586  W2        3176            0.0000000000
      9529      3177  TIP3      OH2            20.6407012922       29.0614936235      -15.3233441586  W2        3177            0.0000000000
      9530      3177  TIP3      H1             20.8635612922       28.6434536235      -14.4915941586  W2        3177            0.0000000000
      9531      3177  TIP3      H2             20.0387112922       28.4489936235      -15.7460641586  W2        3177            0.0000000000
      9532      3178  TIP3      OH2            27.6571912922       28.5784836235      -13.1103741586  W2        3178            0.0000000000
      9533      3178  TIP3      H1             27.3612712922       28.4127836235      -14.0054641586  W2        3178            0.0000000000
      9534      3178  TIP3      H2             28.5887112922       28.3585136235      -13.1209841586  W2        3178            0.0000000000
      9535      3179  TIP3      OH2            32.2774712922       33.9516836235      -15.2205741586  W2        3179            0.0000000000
      9536      3179  TIP3      H1             31.3769012922       34.1349436235      -15.4881841586  W2        3179            0.0000000000
      9537      3179  TIP3      H2             32.3115812922       34.2106136235      -14.2996941586  W2        3179            0.0000000000
      9538      3180  TIP3      OH2            36.3039712922       34.9825136235      -26.3881041586  W2        3180            0.0000000000
      9539      3180  TIP3      H1             35.9310812922       34.1568936235      -26.0790441586  W2        3180            0.0000000000
      9540      3180  TIP3      H2             36.5813212922       34.7994536235      -27.2857641586  W2        3180            0.0000000000
      9541      3181  TIP3      OH2            33.4643612922       29.7904636235      -19.3669141586  W2        3181            0.0000000000
      9542      3181  TIP3      H1             32.5360512922       29.5586536235      -19.3939841586  W2        3181            0.0000000000
      9543      3181  TIP3      H2             33.9154712922       29.0134436235      -19.6970341586  W2        3181            0.0000000000
      9544      3182  TIP3      OH2            26.0076712922       34.1186236235      -23.2340441586  W2        3182            0.0000000000
      9545      3182  TIP3      H1             26.5348912922       34.8920636235      -23.4341641586  W2        3182            0.0000000000
      9546      3182  TIP3      H2             25.1275212922       34.3435436235      -23.5356441586  W2        3182            0.0000000000
      9547      3183  TIP3      OH2            21.7624412922       28.9810336235      -28.6468041586  W2        3183            0.0000000000
      9548      3183  TIP3      H1             22.3784312922       29.6077536235      -28.2673241586  W2        3183            0.0000000000
      9549      3183  TIP3      H2             20.9007012922       29.2970136235      -28.3751541586  W2        3183            0.0000000000
      9550      3184  TIP3      OH2            27.4349012922       31.7816136235      -23.6576141586  W2        3184            0.0000000000
      9551      3184  TIP3      H1             27.1939012922       32.7070536235      -23.6160841586  W2        3184            0.0000000000
      9552      3184  TIP3      H2             26.6942612922       31.3227436235      -23.2612241586  W2        3184            0.0000000000
      9553      3185  TIP3      OH2            27.9495612922       35.9309736235      -17.3425041586  W2        3185            0.0000000000
      9554      3185  TIP3      H1             28.3120312922       36.7855336235      -17.5760641586  W2        3185            0.0000000000
      9555      3185  TIP3      H2             28.4810812922       35.6391336235      -16.6018741586  W2        3185            0.0000000000
      9556      3186  TIP3      OH2            26.1179812922       36.8033736235      -24.1123941586  W2        3186            0.0000000000
      9557      3186  TIP3      H1             25.1680312922       36.9091136235      -24.0610641586  W2        3186            0.0000000000
      9558      3186  TIP3      H2             26.4697912922       37.6241136235      -23.7676441586  W2        3186            0.0000000000
      9559      3187  TIP3      OH2            31.4936412922       32.0300436235      -17.6419441586  W2        3187            0.0000000000
      9560      3187  TIP3      H1             31.0677712922       31.8022136235      -16.8155441586  W2        3187            0.0000000000
      9561      3187  TIP3      H2             32.0742212922       31.2912236235      -17.8244141586  W2        3187            0.0000000000
      9562      3188  TIP3      OH2            33.6965312922       32.9590936235      -28.5680441586  W2        3188            0.0000000000
      9563      3188  TIP3      H1             34.0498412922       32.5790736235      -27.7636941586  W2        3188            0.0000000000
      9564      3188  TIP3      H2             32.7478812922       32.8655736235      -28.4811141586  W2        3188            0.0000000000
      9565      3189  TIP3      OH2            34.1520612922       36.5819936235      -15.1724641586  W2        3189            0.0000000000
      9566      3189  TIP3      H1             33.5503812922       36.0262836235      -15.6678341586  W2        3189            0.0000000000
      9567      3189  TIP3      H2             34.4334312922       37.2489736235      -15.7987241586  W2        3189            0.0000000000
      9568      3190  TIP3      OH2            22.2746512922       23.8147636235      -15.7652041586  W2        3190            0.0000000000
      9569      3190  TIP3      H1             21.3818812922       24.1533036235      -15.8328041586  W2        3190            0.0000000000
      9570      3190  TIP3      H2             22.1759312922       22.9593736235      -15.3471241586  W2        3190            0.0000000000
      9571      3191  TIP3      OH2            34.5624612922       31.6312936235      -26.3412541586  W2        3191            0.0000000000
      9572      3191  TIP3      H1             34.2852212922       30.9032236235      -25.7851441586  W2        3191            0.0000000000
      9573      3191  TIP3      H2             35.4897612922       31.7504936235      -26.1359941586  W2        3191            0.0000000000
      9574      3192  TIP3      OH2            21.9258512922       35.6192036235      -17.3302641586  W2        3192            0.0000000000
      9575      3192  TIP3      H1             22.1428812922       34.6874436235      -17.3612941586  W2        3192            0.0000000000
      9576      3192  TIP3      H2             22.1722012922       35.8937036235      -16.4469841586  W2        3192            0.0000000000
      9577      3193  TIP3      OH2            27.7873112922       34.0707036235      -30.1210441586  W2        3193            0.0000000000
      9578      3193  TIP3      H1             28.0262912922       33.3225136235      -30.6681541586  W2        3193            0.0000000000
      9579      3193  TIP3      H2             27.5184412922       33.6828736235      -29.2882641586  W2        3193            0.0000000000
      9580      3194  TIP3      OH2            26.7243712922       33.6410836235      -27.6647841586  W2        3194            0.0000000000
      9581      3194  TIP3      H1             26.8711712922       33.1210636235      -26.8746941586  W2        3194            0.0000000000
      9582      3194  TIP3      H2             26.7215412922       34.5478436235      -27.3581941586  W2        3194            0.0000000000
      9583      3195  TIP3      OH2            23.1774812922       30.8934136235      -27.1542441586  W2        3195            0.0000000000
      9584      3195  TIP3      H1             22.4914112922       31.2456636235      -26.5872741586  W2        3195            0.0000000000
      9585      3195  TIP3      H2             23.7002712922       31.6563736235      -27.4008141586  W2        3195            0.0000000000
      9586      3196  TIP3      OH2            31.0089912922       23.5557936235      -16.8753441586  W2        3196            0.0000000000
      9587      3196  TIP3      H1             31.7077812922       23.6296636235      -16.2253741586  W2        3196            0.0000000000
      9588      3196  TIP3      H2             30.6281312922       22.6912936235      -16.7210541586  W2        3196            0.0000000000
      9589      3197  TIP3      OH2            31.7934812922       23.2079636235      -25.7781141586  W2        3197            0.0000000000
      9590      3197  TIP3      H1             32.0133112922       23.6795036235      -26.5815741586  W2        3197            0.0000000000
      9591      3197  TIP3      H2             32.3518812922       23.6022236235      -25.1080541586  W2        3197            0.0000000000
      9592      3198  TIP3      OH2            29.4620912922       35.3384436235      -26.9153641586  W2        3198            0.0000000000
      9593      3198  TIP3      H1             28.6457012922       35.8354136235      -26.8629341586  W2        3198            0.0000000000
      9594      3198  TIP3      H2             29.9917212922       35.8137936235      -27.5554841586  W2        3198            0.0000000000
      9595      3199  TIP3      OH2            28.9934712922       24.9358436235      -24.9432741586  W2        3199            0.0000000000
      9596      3199  TIP3      H1             29.8057312922       25.4401636235      -24.8971041586  W2        3199            0.0000000000
      9597      3199  TIP3      H2             28.7487712922       24.7908136235      -24.0293141586  W2        3199            0.0000000000
      9598      3200  TIP3      OH2            29.5291112922       25.9221136235      -15.7586141586  W2        3200            0.0000000000
      9599      3200  TIP3      H1             29.6481412922       26.4956536235      -15.0015741586  W2        3200            0.0000000000
      9600      3200  TIP3      H2             30.1845712922       25.2340536235      -15.6438341586  W2        3200            0.0000000000
      9601      3201  TIP3      OH2            29.8771412922       22.0171436235      -24.0051641586  W2        3201            0.0000000000
      9602      3201  TIP3      H1             29.5304912922       22.6342036235      -23.3607341586  W2        3201            0.0000000000
      9603      3201  TIP3      H2             30.5358312922       22.5177136235      -24.4866141586  W2        3201            0.0000000000
      9604      3202  TIP3      OH2            26.8004012922       36.3821636235      -26.9336741586  W2        3202            0.0000000000
      9605      3202  TIP3      H1             26.9612712922       37.1819136235      -27.4344141586  W2        3202            0.0000000000
      9606      3202  TIP3      H2             26.6031812922       36.6887636235      -26.0486141586  W2        3202            0.0000000000
      9607      3203  TIP3      OH2            25.5348412922       23.0800836235      -27.3179141586  W2        3203            0.0000000000
      9608      3203  TIP3      H1             25.4513212922       23.9683936235      -26.9712741586  W2        3203            0.0000000000
      9609      3203  TIP3      H2             26.4248712922       22.8147536235      -27.0862341586  W2        3203            0.0000000000
      9610      3204  TIP3      OH2            35.7336912922       23.8291436235      -14.9236441586  W2        3204            0.0000000000
      9611      3204  TIP3      H1             34.8172712922       24.0913136235      -15.0112741586  W2        3204            0.0000000000
      9612      3204  TIP3      H2             36.0691912922       23.8260436235      -15.8201141586  W2        3204            0.0000000000
      9613      3205  TIP3      OH2            34.3357912922       27.5792436235      -20.8279141586  W2        3205            0.0000000000
      9614      3205  TIP3      H1             33.5382312922       27.1642636235      -21.1564141586  W2        3205            0.0000000000
      9615      3205  TIP3      H2             34.7809012922       26.8886136235      -20.3368641586  W2        3205            0.0000000000
      9616      3206  TIP3      OH2            23.7933712922       33.5073036235      -28.2574641586  W2        3206            0.0000000000
      9617      3206  TIP3      H1             24.3855212922       34.2067836235      -27.9812241586  W2        3206            0.0000000000
      9618      3206  TIP3      H2             24.2526712922       33.0742536235      -28.9770041586  W2        3206            0.0000000000
      9619      3207  TIP3      OH2            22.1092912922       26.1716036235      -29.1415241586  W2        3207            0.0000000000
      9620      3207  TIP3      H1             22.0645512922       27.1109136235      -28.9628241586  W2        3207            0.0000000000
      9621      3207  TIP3      H2             21.2216112922       25.9360936235      -29.4113141586  W2        3207            0.0000000000
      9622      3208  TIP3      OH2            22.9174912922       20.9532636235      -20.4684241586  W2        3208            0.0000000000
      9623      3208  TIP3      H1             22.6884712922       21.0125136235      -21.3959241586  W2        3208            0.0000000000
      9624      3208  TIP3      H2             22.4748312922       20.1618136235      -20.1620141586  W2        3208            0.0000000000
      9625      3209  TIP3      OH2            21.8478212922       34.8939736235      -24.3078441586  W2        3209            0.0000000000
      9626      3209  TIP3      H1             21.0156812922       35.3662436235      -24.2807041586  W2        3209            0.0000000000
      9627      3209  TIP3      H2             22.3936512922       35.4037336235      -24.9065341586  W2        3209            0.0000000000
      9628      3210  TIP3      OH2            25.7335312922       36.4257836235      -11.3576241586  W2        3210            0.0000000000
      9629      3210  TIP3      H1             26.5012512922       35.9668636235      -11.0167041586  W2        3210            0.0000000000
      9630      3210  TIP3      H2             25.7121512922       36.1997636235      -12.2875041586  W2        3210            0.0000000000
      9631      3211  TIP3      OH2            29.8254912922       35.9338436235      -29.9824441586  W2        3211            0.0000000000
      9632      3211  TIP3      H1             29.1815912922       35.3027036235      -29.6610741586  W2        3211            0.0000000000
      9633      3211  TIP3      H2             30.5873212922       35.4026436235      -30.2140941586  W2        3211            0.0000000000
      9634      3212  TIP3      OH2            32.3104012922       34.8058936235      -12.6284741586  W2        3212            0.0000000000
      9635      3212  TIP3      H1             31.9593512922       33.9491936235      -12.3854341586  W2        3212            0.0000000000
      9636      3212  TIP3      H2             33.0367212922       34.9485636235      -12.0215741586  W2        3212            0.0000000000
      9637      3213  TIP3      OH2            34.4297812922       35.7508336235      -29.7486441586  W2        3213            0.0000000000
      9638      3213  TIP3      H1             34.7128212922       34.9563536235      -29.2959541586  W2        3213            0.0000000000
      9639      3213  TIP3      H2             35.1695712922       35.9839336235      -30.3095341586  W2        3213            0.0000000000
      9640      3214  TIP3      OH2            21.0431412922       31.3167536235      -12.0236141586  W2        3214            0.0000000000
      9641      3214  TIP3      H1             21.1871912922       30.4148236235      -12.3099441586  W2        3214            0.0000000000
      9642      3214  TIP3      H2             20.2708812922       31.6029636235      -12.5113841586  W2        3214            0.0000000000
      9643      3215  TIP3      OH2            25.3845112922       31.6603236235      -29.8911541586  W2        3215            0.0000000000
      9644      3215  TIP3      H1             25.4489212922       30.8662836235      -29.3605141586  W2        3215            0.0000000000
      9645      3215  TIP3      H2             26.0374312922       31.5416036235      -30.5809541586  W2        3215            0.0000000000
      9646      3216  TIP3      OH2            27.6987512922       31.2865636235      -12.5909741586  W2        3216            0.0000000000
      9647      3216  TIP3      H1             27.3701312922       31.5573736235      -13.4482341586  W2        3216            0.0000000000
      9648      3216  TIP3      H2             27.8505712922       30.3455436235      -12.6784741586  W2        3216            0.0000000000
      9649      3217  TIP3      OH2            30.7368512922       32.7074936235      -30.1553541586  W2        3217            0.0000000000
      9650      3217  TIP3      H1             30.4682612922       32.8877036235      -29.2544641586  W2        3217            0.0000000000
      9651      3217  TIP3      H2             30.5304112922       31.7821136235      -30.2867741586  W2        3217            0.0000000000
      9652      3218  TIP3      OH2            33.4332712922       31.2022936235      -15.2077441586  W2        3218            0.0000000000
      9653      3218  TIP3      H1             34.1787512922       31.7906636235      -15.3273441586  W2        3218            0.0000000000
      9654      3218  TIP3      H2             32.6759512922       31.7842636235      -15.1444341586  W2        3218            0.0000000000
      9655      3219  TIP3      OH2            21.8757912922       28.5170836235      -12.6036841586  W2        3219            0.0000000000
      9656      3219  TIP3      H1             22.2839112922       27.6597436235      -12.7246241586  W2        3219            0.0000000000
      9657      3219  TIP3      H2             21.6155512922       28.5312136235      -11.6826541586  W2        3219            0.0000000000
      9658      3220  TIP3      OH2            26.5338912922       29.6329436235      -27.5853541586  W2        3220            0.0000000000
      9659      3220  TIP3      H1             26.0740912922       29.1487736235      -26.8995041586  W2        3220            0.0000000000
      9660      3220  TIP3      H2             26.7887612922       28.9644836235      -28.2213041586  W2        3220            0.0000000000
      9661      3221  TIP3      OH2            25.8228212922       27.5256536235      -15.2293941586  W2        3221            0.0000000000
      9662      3221  TIP3      H1             25.2044312922       28.2003136235      -14.9489241586  W2        3221            0.0000000000
      9663      3221  TIP3      H2             26.1669412922       27.8470436235      -16.0627741586  W2        3221            0.0000000000
      9664      3222  TIP3      OH2            27.6049312922       27.8761236235      -29.3230341586  W2        3222            0.0000000000
      9665      3222  TIP3      H1             27.4244312922       27.7212436235      -30.2502041586  W2        3222            0.0000000000
      9666      3222  TIP3      H2             28.5549812922       27.9839936235      -29.2782441586  W2        3222            0.0000000000
      9667      3223  TIP3      OH2            30.8426412922       29.9971836235      -11.9519141586  W2        3223            0.0000000000
      9668      3223  TIP3      H1             31.7957612922       30.0810936235      -11.9793141586  W2        3223            0.0000000000
      9669      3223  TIP3      H2             30.6821012922       29.2853636235      -11.3324241586  W2        3223            0.0000000000
      9670      3224  TIP3      OH2            26.1621912922       24.8807336235      -14.1470841586  W2        3224            0.0000000000
      9671      3224  TIP3      H1             26.3122812922       24.1518636235      -14.7491141586  W2        3224            0.0000000000
      9672      3224  TIP3      H2             26.1644312922       25.6579036235      -14.7058641586  W2        3224            0.0000000000
      9673      3225  TIP3      OH2            26.5747612922       23.2503136235      -16.6543441586  W2        3225            0.0000000000
      9674      3225  TIP3      H1             27.1105112922       23.7019836235      -17.3064141586  W2        3225            0.0000000000
      9675      3225  TIP3      H2             25.7227212922       23.1422936235      -17.0769341586  W2        3225            0.0000000000
      9676      3226  TIP3      OH2            28.1566012922       28.6899336235      -16.4148241586  W2        3226            0.0000000000
      9677      3226  TIP3      H1             28.9070812922       28.5336836235      -16.9880441586  W2        3226            0.0000000000
      9678      3226  TIP3      H2             27.8174312922       29.5415936235      -16.6902741586  W2        3226            0.0000000000
      9679      3227  TIP3      OH2            32.5722212922       26.5051136235      -11.3862941586  W2        3227            0.0000000000
      9680      3227  TIP3      H1             32.7643512922       25.5740536235      -11.4978441586  W2        3227            0.0000000000
      9681      3227  TIP3      H2             33.4298512922       26.9300636235      -11.3967541586  W2        3227            0.0000000000
      9682      3228  TIP3      OH2            33.8889412922       29.2936336235      -13.3090241586  W2        3228            0.0000000000
      9683      3228  TIP3      H1             33.6074412922       30.0030936235      -13.8866441586  W2        3228            0.0000000000
      9684      3228  TIP3      H2             34.8313712922       29.2209336235      -13.4599041586  W2        3228            0.0000000000
      9685      3229  TIP3      OH2            24.6408212922       26.0790836235      -12.2355241586  W2        3229            0.0000000000
      9686      3229  TIP3      H1             23.8737212922       25.5465636235      -12.4457641586  W2        3229            0.0000000000
      9687      3229  TIP3      H2             25.3197212922       25.7691236235      -12.8348941586  W2        3229            0.0000000000
      9688      3230  TIP3      OH2            27.3803112922       20.7068836235      -16.2229841586  W2        3230            0.0000000000
      9689      3230  TIP3      H1             27.2822712922       21.6532036235      -16.3283641586  W2        3230            0.0000000000
      9690      3230  TIP3      H2             26.6379312922       20.3342636235      -16.6986341586  W2        3230            0.0000000000
      9691      3231  TIP3      OH2            28.6443612922       25.0284236235      -12.6591441586  W2        3231            0.0000000000
      9692      3231  TIP3      H1             28.4089012922       24.8090936235      -11.7576541586  W2        3231            0.0000000000
      9693      3231  TIP3      H2             27.8610512922       24.8215436235      -13.1688941586  W2        3231            0.0000000000
      9694      3232  TIP3      OH2            31.3600212922       24.1557736235      -13.5837941586  W2        3232            0.0000000000
      9695      3232  TIP3      H1             30.4125612922       24.1877436235      -13.4514641586  W2        3232            0.0000000000
      9696      3232  TIP3      H2             31.6726912922       23.5304836235      -12.9299741586  W2        3232            0.0000000000
      9697      3233  TIP3      OH2            32.9941712922       22.7898836235      -11.5786041586  W2        3233            0.0000000000
      9698      3233  TIP3      H1             32.8973512922       21.8376136235      -11.5844141586  W2        3233            0.0000000000
      9699      3233  TIP3      H2             32.6724812922       23.0585636235      -10.7180541586  W2        3233            0.0000000000
      9700      3234  TIP3      OH2            22.8211012922       23.9994636235      -12.5310541586  W2        3234            0.0000000000
      9701      3234  TIP3      H1             23.0328412922       23.2930736235      -13.1413041586  W2        3234            0.0000000000
      9702      3234  TIP3      H2             22.7098512922       23.5620636235      -11.6869341586  W2        3234            0.0000000000
      9703      3235  TIP3      OH2            27.6021212922       20.0006236235      -13.5517041586  W2        3235            0.0000000000
      9704      3235  TIP3      H1             28.3139612922       19.3608436235      -13.5657941586  W2        3235            0.0000000000
      9705      3235  TIP3      H2             27.5011612922       20.2674536235      -14.4653941586  W2        3235            0.0000000000
      9706      3236  TIP3      OH2            27.9558712922       21.6834636235      -11.4980741586  W2        3236            0.0000000000
      9707      3236  TIP3      H1             27.8240912922       21.2078436235      -12.3182241586  W2        3236            0.0000000000
      9708      3236  TIP3      H2             27.3566112922       22.4278236235      -11.5533641586  W2        3236            0.0000000000
      9709      3237  TIP3      OH2            21.0705912922       33.2028736235      -28.8388641586  W2        3237            0.0000000000
      9710      3237  TIP3      H1             21.9845112922       33.2817636235      -28.5654741586  W2        3237            0.0000000000
      9711      3237  TIP3      H2             21.0779012922       32.5158336235      -29.5053041586  W2        3237            0.0000000000
      9712      3238  TIP3      OH2            20.5895712922       36.6764236235      -21.9568541586  W2        3238            0.0000000000
      9713      3238  TIP3      H1             20.2552512922       35.7961536235      -21.7848341586  W2        3238            0.0000000000
      9714      3238  TIP3      H2             20.8118112922       37.0219236235      -21.0922941586  W2        3238            0.0000000000
      9715      3239  TIP3      OH2            36.1520712922       32.8429836235      -11.4164341586  W2        3239            0.0000000000
      9716      3239  TIP3      H1             35.2861812922       32.7379536235      -11.0222041586  W2        3239            0.0000000000
      9717      3239  TIP3      H2             36.5286612922       33.6013136235      -10.9699641586  W2        3239            0.0000000000
      9718      3240  TIP3      OH2            36.0929512922       34.8155936235      -16.8240141586  W2        3240            0.0000000000
      9719      3240  TIP3      H1             35.4454812922       35.1407436235      -16.1984941586  W2        3240            0.0000000000
      9720      3240  TIP3      H2             35.5753512922       34.3753636235      -17.4981841586  W2        3240            0.0000000000
      9721      3241  TIP3      OH2            36.4648112922       26.2935036235      -29.1367741586  W2        3241            0.0000000000
      9722      3241  TIP3      H1             36.5612512922       26.9602036235      -29.8168041586  W2        3241            0.0000000000
      9723      3241  TIP3      H2             36.3247712922       25.4781336235      -29.6182241586  W2        3241            0.0000000000
      9724      3242  TIP3      OH2            35.6342812922       27.6737436235      -23.5157441586  W2        3242            0.0000000000
      9725      3242  TIP3      H1             35.4841612922       26.7286036235      -23.5359641586  W2        3242            0.0000000000
      9726      3242  TIP3      H2             35.2807312922       27.9548836235      -22.6718341586  W2        3242            0.0000000000
      9727      3243  TIP3      OH2            20.6695212922       29.7519636235      -19.5053641586  W2        3243            0.0000000000
      9728      3243  TIP3      H1             20.8538112922       29.6701336235      -20.4410741586  W2        3243            0.0000000000
      9729      3243  TIP3      H2             21.5188112922       29.6276636235      -19.0817241586  W2        3243            0.0000000000
      9730      3244  TIP3      OH2            36.4905712922       29.6440736235      -13.8769141586  W2        3244            0.0000000000
      9731      3244  TIP3      H1             37.0733012922       28.9093036235      -13.6851941586  W2        3244            0.0000000000
      9732      3244  TIP3      H2             37.0545012922       30.4161036235      -13.8303341586  W2        3244            0.0000000000
      9733      3245  TIP3      OH2            35.7121912922       23.7014836235      -30.0192241586  W2        3245            0.0000000000
      9734      3245  TIP3      H1             36.3227712922       23.3301636235      -29.3824041586  W2        3245            0.0000000000
      9735      3245  TIP3      H2             34.8753412922       23.2801736235      -29.8232241586  W2        3245            0.0000000000
      9736      3246  TIP3      OH2            35.3447612922       25.2563236235      -25.0532341586  W2        3246            0.0000000000
      9737      3246  TIP3      H1             35.6244712922       24.3493636235      -24.9290641586  W2        3246            0.0000000000
      9738      3246  TIP3      H2             36.1039312922       25.6904736235      -25.4423141586  W2        3246            0.0000000000
      9739      3247  TIP3      OH2            35.9565912922       25.8380636235      -19.6173441586  W2        3247            0.0000000000
      9740      3247  TIP3      H1             36.8893912922       26.0500536235      -19.6517441586  W2        3247            0.0000000000
      9741      3247  TIP3      H2             35.7213412922       25.9392736235      -18.6950441586  W2        3247            0.0000000000
      9742      3248  TIP3      OH2            35.9857812922       26.5745936235      -16.8414041586  W2        3248            0.0000000000
      9743      3248  TIP3      H1             35.1429112922       26.8426336235      -16.4754241586  W2        3248            0.0000000000
      9744      3248  TIP3      H2             36.4282112922       27.3967836235      -17.0522941586  W2        3248            0.0000000000
      9745      3249  TIP3      OH2            20.2670012922       25.0224636235      -13.3644841586  W2        3249            0.0000000000
      9746      3249  TIP3      H1             21.1864912922       24.9002936235      -13.1281741586  W2        3249            0.0000000000
      9747      3249  TIP3      H2             19.8174512922       24.2724336235      -12.9751341586  W2        3249            0.0000000000
      9748      3250  TIP3      OH2            35.9582412922       22.5192536235      -25.0050341586  W2        3250            0.0000000000
      9749      3250  TIP3      H1             36.1407412922       22.0704036235      -24.1795341586  W2        3250            0.0000000000
      9750      3250  TIP3      H2             35.3585312922       21.9346936235      -25.4685741586  W2        3250            0.0000000000
      9751      3251  TIP3      OH2            21.4882512922       23.3346236235      -20.4731941586  W2        3251            0.0000000000
      9752      3251  TIP3      H1             21.9334112922       22.5428736235      -20.1712241586  W2        3251            0.0000000000
      9753      3251  TIP3      H2             21.9545512922       24.0511436235      -20.0426341586  W2        3251            0.0000000000
      9754      3252  TIP3      OH2            19.7922812922       26.3339236235      -19.4041741586  W2        3252            0.0000000000
      9755      3252  TIP3      H1             20.2842612922       26.1129736235      -20.1949741586  W2        3252            0.0000000000
      9756      3252  TIP3      H2             20.1543712922       27.1742636235      -19.1232241586  W2        3252            0.0000000000
      9757      3253  TIP3      OH2            20.1059312922       22.5918336235      -25.3499341586  W2        3253            0.0000000000
      9758      3253  TIP3      H1             19.1807712922       22.8004936235      -25.4793841586  W2        3253            0.0000000000
      9759      3253  TIP3      H2             20.5599212922       23.0759136235      -26.0397041586  W2        3253            0.0000000000
      9760      3254  TIP3      OH2            20.0694712922       21.3297336235      -17.0056841586  W2        3254            0.0000000000
      9761      3254  TIP3      H1             19.4045212922       21.0837636235      -16.3625941586  W2        3254            0.0000000000
      9762      3254  TIP3      H2             19.6266012922       21.9517736235      -17.5828841586  W2        3254            0.0000000000
      9763      3255  TIP3      OH2            22.2614012922       34.5051436235      -12.8611041586  W2        3255            0.0000000000
      9764      3255  TIP3      H1             21.4406512922       34.6797936235      -13.3216341586  W2        3255            0.0000000000
      9765      3255  TIP3      H2             22.0091812922       34.4316136235      -11.9406641586  W2        3255            0.0000000000
      9766      3256  TIP3      OH2            25.2156912922       35.4792636235      -16.6027041586  W2        3256            0.0000000000
      9767      3256  TIP3      H1             24.7908012922       36.2891136235      -16.8852441586  W2        3256            0.0000000000
      9768      3256  TIP3      H2             26.1199712922       35.5646736235      -16.9047241586  W2        3256            0.0000000000
      9769      3257  TIP3      OH2            24.1734812922       36.0687736235      -20.9900041586  W2        3257            0.0000000000
      9770      3257  TIP3      H1             23.9545512922       35.1525136235      -20.8204041586  W2        3257            0.0000000000
      9771      3257  TIP3      H2             24.9977012922       36.2088136235      -20.5238641586  W2        3257            0.0000000000
      9772      3258  TIP3      OH2            26.7107312922       36.5387036235      -20.1412041586  W2        3258            0.0000000000
      9773      3258  TIP3      H1             26.9233012922       35.6506036235      -20.4281141586  W2        3258            0.0000000000
      9774      3258  TIP3      H2             26.7752412922       36.5044736235      -19.1868041586  W2        3258            0.0000000000
      9775      3259  TIP3      OH2            30.2191012922       22.2027636235      -20.9968741586  W2        3259            0.0000000000
      9776      3259  TIP3      H1             29.5447812922       21.5733236235      -20.7412941586  W2        3259            0.0000000000
      9777      3259  TIP3      H2             30.7830212922       21.7186536235      -21.6000841586  W2        3259            0.0000000000
      9778      3260  TIP3      OH2            35.3618212922       20.3101636235      -20.8841641586  W2        3260            0.0000000000
      9779      3260  TIP3      H1             35.9655812922       20.8577036235      -21.3860641586  W2        3260            0.0000000000
      9780      3260  TIP3      H2             34.4920212922       20.6292036235      -21.1247541586  W2        3260            0.0000000000
      9781      3261  TIP3      OH2            22.5458512922       20.8367936235      -23.1748841586  W2        3261            0.0000000000
      9782      3261  TIP3      H1             21.7688312922       20.6022836235      -23.6822941586  W2        3261            0.0000000000
      9783      3261  TIP3      H2             23.0762112922       20.0400036235      -23.1660841586  W2        3261            0.0000000000
      9784      3262  TIP3      OH2            21.3821912922       20.6346036235      -27.3712741586  W2        3262            0.0000000000
      9785      3262  TIP3      H1             21.8212612922       21.2456536235      -27.9629241586  W2        3262            0.0000000000
      9786      3262  TIP3      H2             20.7484312922       21.1730136235      -26.8972741586  W2        3262            0.0000000000
      9787      3263  TIP3      OH2            27.1251112922       20.7635036235      -23.3615741586  W2        3263            0.0000000000
      9788      3263  TIP3      H1             27.9994512922       21.1519336235      -23.3911441586  W2        3263            0.0000000000
      9789      3263  TIP3      H2             26.9891912922       20.5482836235      -22.4388541586  W2        3263            0.0000000000
      9790      3264  TIP3      OH2            32.6819512922       20.7934836235      -21.7124041586  W2        3264            0.0000000000
      9791      3264  TIP3      H1             32.7581112922       20.8886436235      -22.6618041586  W2        3264            0.0000000000
      9792      3264  TIP3      H2             32.4068712922       19.8857736235      -21.5834941586  W2        3264            0.0000000000
      9793      3265  TIP3      OH2            34.0352112922       20.8192636235      -26.0199041586  W2        3265            0.0000000000
      9794      3265  TIP3      H1             33.3323212922       21.4341836235      -26.2297641586  W2        3265            0.0000000000
      9795      3265  TIP3      H2             33.5903512922       19.9819336235      -25.8888141586  W2        3265            0.0000000000
      9796      3266  TIP3      OH2            21.2831412922       36.5828236235      -26.4737641586  W2        3266            0.0000000000
      9797      3266  TIP3      H1             20.5981312922       36.5447136235      -27.1412541586  W2        3266            0.0000000000
      9798      3266  TIP3      H2             21.2868612922       37.4955836235      -26.1855541586  W2        3266            0.0000000000
      9799      3267  TIP3      OH2            23.2431012922       22.5507536235      -28.9288641586  W2        3267            0.0000000000
      9800      3267  TIP3      H1             23.7344412922       21.9209936235      -29.4563141586  W2        3267            0.0000000000
      9801      3267  TIP3      H2             23.8667312922       22.8466936235      -28.2657441586  W2        3267            0.0000000000
      9802      3268  TIP3      OH2            28.2691112922       22.8439036235      -26.4718141586  W2        3268            0.0000000000
      9803      3268  TIP3      H1             28.4472412922       22.1972236235      -25.7889541586  W2        3268            0.0000000000
      9804      3268  TIP3      H2             28.2157312922       23.6776736235      -26.0047041586  W2        3268            0.0000000000
      9805      3269  TIP3      OH2            22.5036512922       21.3509836235      -13.6572641586  W2        3269            0.0000000000
      9806      3269  TIP3      H1             22.1374712922       20.5852436235      -13.2147941586  W2        3269            0.0000000000
      9807      3269  TIP3      H2             23.4165012922       21.3800036235      -13.3707541586  W2        3269            0.0000000000
      9808      3270  TIP3      OH2            24.4767312922       20.7014236235      -12.1215541586  W2        3270            0.0000000000
      9809      3270  TIP3      H1             25.3750912922       20.4274436235      -12.3062141586  W2        3270            0.0000000000
      9810      3270  TIP3      H2             24.0900412922       19.9590236235      -11.6572941586  W2        3270            0.0000000000
      9811      3271  TIP3      OH2            32.8979612922       20.0339536235      -11.9392741586  W2        3271            0.0000000000
      9812      3271  TIP3      H1             32.9746812922       19.6080236235      -11.0855041586  W2        3271            0.0000000000
      9813      3271  TIP3      H2             33.7916212922       20.0474236235      -12.2819241586  W2        3271            0.0000000000
      9814      3272  TIP3      OH2            36.0740712922       36.1065836235      -13.2468541586  W2        3272            0.0000000000
      9815      3272  TIP3      H1             35.2922612922       35.9203836235      -13.7667941586  W2        3272            0.0000000000
      9816      3272  TIP3      H2             36.0020612922       37.0360136235      -13.0296041586  W2        3272            0.0000000000
      9817      3273  TIP3      OH2           -24.9438887078      -26.5749763765       -4.3601341586  W2        3273            0.0000000000
      9818      3273  TIP3      H1            -24.8547787078      -25.6311563765       -4.4924241586  W2        3273            0.0000000000
      9819      3273  TIP3      H2            -25.5821287078      -26.8503363765       -5.0181941586  W2        3273            0.0000000000
      9820      3274  TIP3      OH2           -26.0107587078      -27.3199063765       -0.9413141586  W2        3274            0.0000000000
      9821      3274  TIP3      H1            -26.0490087078      -27.9662763765       -0.2363541586  W2        3274            0.0000000000
      9822      3274  TIP3      H2            -26.3331087078      -27.7864663765       -1.7124441586  W2        3274            0.0000000000
      9823      3275  TIP3      OH2           -33.6422587078      -27.7056963765        0.6516758414  W2        3275            0.0000000000
      9824      3275  TIP3      H1            -33.6010487078      -28.3313663765        1.3749158414  W2        3275            0.0000000000
      9825      3275  TIP3      H2            -32.9394887078      -27.0818363765        0.8337158414  W2        3275            0.0000000000
      9826      3276  TIP3      OH2           -22.3047387078      -24.3808663765       -2.6398041586  W2        3276            0.0000000000
      9827      3276  TIP3      H1            -22.7454687078      -25.1012663765       -2.1892441586  W2        3276            0.0000000000
      9828      3276  TIP3      H2            -22.3177687078      -23.6601463765       -2.0100341586  W2        3276            0.0000000000
      9829      3277  TIP3      OH2           -32.7189487078      -23.2558063765       -0.8134141586  W2        3277            0.0000000000
      9830      3277  TIP3      H1            -33.0884287078      -24.0577563765       -1.1829841586  W2        3277            0.0000000000
      9831      3277  TIP3      H2            -31.7778387078      -23.4243163765       -0.7670741586  W2        3277            0.0000000000
      9832      3278  TIP3      OH2           -36.1088987078      -29.5955463765       -5.4205341586  W2        3278            0.0000000000
      9833      3278  TIP3      H1            -36.5565587078      -28.7496763765       -5.4388841586  W2        3278            0.0000000000
      9834      3278  TIP3      H2            -36.6697787078      -30.1751263765       -5.9360241586  W2        3278            0.0000000000
      9835      3279  TIP3      OH2           -35.3982887078      -27.4335863765       -3.2947341586  W2        3279            0.0000000000
      9836      3279  TIP3      H1            -35.1849387078      -28.2034263765       -2.7674341586  W2        3279            0.0000000000
      9837      3279  TIP3      H2            -34.6605287078      -27.3439163765       -3.8979741586  W2        3279            0.0000000000
      9838      3280  TIP3      OH2           -25.1931887078      -19.2766963765       -2.4277641586  W2        3280            0.0000000000
      9839      3280  TIP3      H1            -24.5735487078      -19.9532263765       -2.7008441586  W2        3280            0.0000000000
      9840      3280  TIP3      H2            -25.4014487078      -19.4946163765       -1.5192741586  W2        3280            0.0000000000
      9841      3281  TIP3      OH2           -27.6213187078      -24.8877663765       -0.5352141586  W2        3281            0.0000000000
      9842      3281  TIP3      H1            -27.3175287078      -25.5736263765       -1.1298041586  W2        3281            0.0000000000
      9843      3281  TIP3      H2            -26.8999187078      -24.7688963765        0.0825858414  W2        3281            0.0000000000
      9844      3282  TIP3      OH2           -18.9583387078      -33.2862363765        0.3254058414  W2        3282            0.0000000000
      9845      3282  TIP3      H1            -18.9091187078      -32.6761163765        1.0613158414  W2        3282            0.0000000000
      9846      3282  TIP3      H2            -18.5328287078      -32.8251463765       -0.3974841586  W2        3282            0.0000000000
      9847      3283  TIP3      OH2           -24.4806187078      -30.4935263765       -0.2077341586  W2        3283            0.0000000000
      9848      3283  TIP3      H1            -24.3380287078      -31.4398263765       -0.1875741586  W2        3283            0.0000000000
      9849      3283  TIP3      H2            -24.5867187078      -30.2865463765       -1.1362441586  W2        3283            0.0000000000
      9850      3284  TIP3      OH2           -31.3257887078      -32.3918863765       -2.9352541586  W2        3284            0.0000000000
      9851      3284  TIP3      H1            -31.2826787078      -31.5320363765       -3.3536241586  W2        3284            0.0000000000
      9852      3284  TIP3      H2            -31.7833787078      -32.9444163765       -3.5689341586  W2        3284            0.0000000000
      9853      3285  TIP3      OH2           -23.6035187078      -32.2613263765       -4.5344241586  W2        3285            0.0000000000
      9854      3285  TIP3      H1            -22.9570887078      -32.5900063765       -3.9096641586  W2        3285            0.0000000000
      9855      3285  TIP3      H2            -23.0935787078      -31.7434263765       -5.1572841586  W2        3285            0.0000000000
      9856      3286  TIP3      OH2           -34.7056387078      -29.9953063765       -2.1731141586  W2        3286            0.0000000000
      9857      3286  TIP3      H1            -34.0519787078      -30.5451363765       -1.7411041586  W2        3286            0.0000000000
      9858      3286  TIP3      H2            -34.6817087078      -30.2694063765       -3.0899141586  W2        3286            0.0000000000
      9859      3287  TIP3      OH2           -29.5491887078      -28.4451763765       -2.9579641586  W2        3287            0.0000000000
      9860      3287  TIP3      H1            -28.9330887078      -28.9716363765       -2.4485641586  W2        3287            0.0000000000
      9861      3287  TIP3      H2            -30.1353087078      -29.0853063765       -3.3616041586  W2        3287            0.0000000000
      9862      3288  TIP3      OH2           -18.5668787078      -31.8083163765        2.5613858414  W2        3288            0.0000000000
      9863      3288  TIP3      H1            -19.2554187078      -31.1502463765        2.4660458414  W2        3288            0.0000000000
      9864      3288  TIP3      H2            -18.5514187078      -32.0055263765        3.4979258414  W2        3288            0.0000000000
      9865      3289  TIP3      OH2           -32.5155987078      -33.4740463765        1.1388258414  W2        3289            0.0000000000
      9866      3289  TIP3      H1            -32.7344287078      -32.9439863765        0.3724258414  W2        3289            0.0000000000
      9867      3289  TIP3      H2            -33.1835087078      -33.2474963765        1.7859658414  W2        3289            0.0000000000
      9868      3290  TIP3      OH2           -25.1466187078      -23.9739363765       -5.3172641586  W2        3290            0.0000000000
      9869      3290  TIP3      H1            -25.4421087078      -24.2967063765       -6.1685741586  W2        3290            0.0000000000
      9870      3290  TIP3      H2            -25.4708387078      -23.0742663765       -5.2760041586  W2        3290            0.0000000000
      9871      3291  TIP3      OH2           -29.9464587078      -25.7984763765        1.4261958414  W2        3291            0.0000000000
      9872      3291  TIP3      H1            -30.6865487078      -25.2003263765        1.5297158414  W2        3291            0.0000000000
      9873      3291  TIP3      H2            -29.2325087078      -25.2445163765        1.1105558414  W2        3291            0.0000000000
      9874      3292  TIP3      OH2           -21.8396787078      -32.9703963765       -2.5538341586  W2        3292            0.0000000000
      9875      3292  TIP3      H1            -22.0548787078      -33.7360563765       -2.0212341586  W2        3292            0.0000000000
      9876      3292  TIP3      H2            -21.1839387078      -32.4979363765       -2.0409841586  W2        3292            0.0000000000
      9877      3293  TIP3      OH2           -32.9218687078      -31.5818663765       -0.9089541586  W2        3293            0.0000000000
      9878      3293  TIP3      H1            -32.3082387078      -30.9491063765       -0.5357141586  W2        3293            0.0000000000
      9879      3293  TIP3      H2            -32.4097987078      -32.0543663765       -1.5652641586  W2        3293            0.0000000000
      9880      3294  TIP3      OH2           -31.5390287078      -23.8341763765        2.2133458414  W2        3294            0.0000000000
      9881      3294  TIP3      H1            -31.5442687078      -22.9548263765        1.8352758414  W2        3294            0.0000000000
      9882      3294  TIP3      H2            -32.3926187078      -23.9177663765        2.6383358414  W2        3294            0.0000000000
      9883      3295  TIP3      OH2           -35.4179387078      -24.1633863765       -7.0047241586  W2        3295            0.0000000000
      9884      3295  TIP3      H1            -35.6898487078      -23.9342863765       -7.8934341586  W2        3295            0.0000000000
      9885      3295  TIP3      H2            -35.3723687078      -23.3255063765       -6.5441941586  W2        3295            0.0000000000
      9886      3296  TIP3      OH2           -21.7929687078      -22.5417963765       -0.2918741586  W2        3296            0.0000000000
      9887      3296  TIP3      H1            -22.7345987078      -22.4834063765       -0.1301841586  W2        3296            0.0000000000
      9888      3296  TIP3      H2            -21.5163587078      -21.6357463765       -0.4289041586  W2        3296            0.0000000000
      9889      3297  TIP3      OH2           -21.4922687078      -34.2552663765        1.1255158414  W2        3297            0.0000000000
      9890      3297  TIP3      H1            -22.2283487078      -33.6445563765        1.0876458414  W2        3297            0.0000000000
      9891      3297  TIP3      H2            -20.8088687078      -33.8403663765        0.5991558414  W2        3297            0.0000000000
      9892      3298  TIP3      OH2           -28.4891287078      -36.1685363765       -1.4086841586  W2        3298            0.0000000000
      9893      3298  TIP3      H1            -28.6067087078      -37.1169363765       -1.4628541586  W2        3298            0.0000000000
      9894      3298  TIP3      H2            -29.3441187078      -35.8359263765       -1.1355741586  W2        3298            0.0000000000
      9895      3299  TIP3      OH2           -23.5408487078      -20.7604463765       -3.6667141586  W2        3299            0.0000000000
      9896      3299  TIP3      H1            -23.1156187078      -21.4676563765       -4.1517541586  W2        3299            0.0000000000
      9897      3299  TIP3      H2            -23.2238487078      -19.9591763765       -4.0834941586  W2        3299            0.0000000000
      9898      3300  TIP3      OH2           -22.3811987078      -22.8595963765       -5.1580541586  W2        3300            0.0000000000
      9899      3300  TIP3      H1            -22.6387187078      -23.5495863765       -5.7694641586  W2        3300            0.0000000000
      9900      3300  TIP3      H2            -22.3101187078      -23.3024763765       -4.3124641586  W2        3300            0.0000000000
      9901      3301  TIP3      OH2           -20.6951787078      -24.2929263765        3.3192958414  W2        3301            0.0000000000
      9902      3301  TIP3      H1            -20.5555487078      -24.8846763765        2.5799958414  W2        3301            0.0000000000
      9903      3301  TIP3      H2            -20.5278987078      -23.4203363765        2.9631758414  W2        3301            0.0000000000
      9904      3302  TIP3      OH2           -26.2226387078      -27.3309763765       -6.9081041586  W2        3302            0.0000000000
      9905      3302  TIP3      H1            -26.9340887078      -26.7960063765       -7.2600541586  W2        3302            0.0000000000
      9906      3302  TIP3      H2            -25.5316787078      -27.2757663765       -7.5682141586  W2        3302            0.0000000000
      9907      3303  TIP3      OH2           -26.1687187078      -28.8735463765       -9.8696041586  W2        3303            0.0000000000
      9908      3303  TIP3      H1            -25.4677287078      -28.8508563765       -9.2182041586  W2        3303            0.0000000000
      9909      3303  TIP3      H2            -25.8664287078      -29.5015763765      -10.5256741586  W2        3303            0.0000000000
      9910      3304  TIP3      OH2           -18.8532487078      -27.9531263765        1.3853358414  W2        3304            0.0000000000
      9911      3304  TIP3      H1            -19.5058387078      -27.2585663765        1.4744258414  W2        3304            0.0000000000
      9912      3304  TIP3      H2            -18.3882187078      -27.7430363765        0.5754958414  W2        3304            0.0000000000
      9913      3305  TIP3      OH2           -22.8168687078      -27.1216463765       -5.9565141586  W2        3305            0.0000000000
      9914      3305  TIP3      H1            -23.5487687078      -26.8932763765       -5.3834541586  W2        3305            0.0000000000
      9915      3305  TIP3      H2            -22.3696487078      -27.8353763765       -5.5017641586  W2        3305            0.0000000000
      9916      3306  TIP3      OH2           -22.9195187078      -28.9473863765        3.1111858414  W2        3306            0.0000000000
      9917      3306  TIP3      H1            -22.8396087078      -28.1839463765        3.6830358414  W2        3306            0.0000000000
      9918      3306  TIP3      H2            -23.5207487078      -28.6681463765        2.4206958414  W2        3306            0.0000000000
      9919      3307  TIP3      OH2           -31.1714987078      -26.4910263765       -4.0740141586  W2        3307            0.0000000000
      9920      3307  TIP3      H1            -31.5019787078      -26.8616863765       -4.8923141586  W2        3307            0.0000000000
      9921      3307  TIP3      H2            -30.5830887078      -27.1616263765       -3.7271841586  W2        3307            0.0000000000
      9922      3308  TIP3      OH2           -29.8047487078      -23.0629663765       -1.3927941586  W2        3308            0.0000000000
      9923      3308  TIP3      H1            -29.8996187078      -23.6416563765       -2.1493341586  W2        3308            0.0000000000
      9924      3308  TIP3      H2            -29.0753887078      -23.4343963765       -0.8965141586  W2        3308            0.0000000000
      9925      3309  TIP3      OH2           -30.8049487078      -27.7224663765       -0.4405141586  W2        3309            0.0000000000
      9926      3309  TIP3      H1            -30.2396987078      -27.6010463765       -1.2033941586  W2        3309            0.0000000000
      9927      3309  TIP3      H2            -30.4860587078      -27.0849663765        0.1983358414  W2        3309            0.0000000000
      9928      3310  TIP3      OH2           -24.4957287078      -22.2192763765        0.2935358414  W2        3310            0.0000000000
      9929      3310  TIP3      H1            -24.7360687078      -21.5569663765        0.9414558414  W2        3310            0.0000000000
      9930      3310  TIP3      H2            -24.6939087078      -23.0537563765        0.7184958414  W2        3310            0.0000000000
      9931      3311  TIP3      OH2           -29.9248787078      -23.3231963765        4.2766758414  W2        3311            0.0000000000
      9932      3311  TIP3      H1            -30.2361287078      -22.5408763765        4.7319958414  W2        3311            0.0000000000
      9933      3311  TIP3      H2            -30.5748587078      -23.4762863765        3.5908758414  W2        3311            0.0000000000
      9934      3312  TIP3      OH2           -23.9459187078      -27.9593563765       -8.2713941586  W2        3312            0.0000000000
      9935      3312  TIP3      H1            -23.3663687078      -27.8093263765       -7.5245041586  W2        3312            0.0000000000
      9936      3312  TIP3      H2            -23.5319187078      -27.4886163765       -8.9947541586  W2        3312            0.0000000000
      9937      3313  TIP3      OH2           -33.0048887078      -27.1250863765        3.5052458414  W2        3313            0.0000000000
      9938      3313  TIP3      H1            -32.9345687078      -26.4744063765        4.2037458414  W2        3313            0.0000000000
      9939      3313  TIP3      H2            -33.8956687078      -27.0223363765        3.1703358414  W2        3313            0.0000000000
      9940      3314  TIP3      OH2           -26.2194287078      -21.2225063765       -4.8360841586  W2        3314            0.0000000000
      9941      3314  TIP3      H1            -25.7456687078      -20.9268763765       -4.0586641586  W2        3314            0.0000000000
      9942      3314  TIP3      H2            -26.7824987078      -20.4843463765       -5.0691241586  W2        3314            0.0000000000
      9943      3315  TIP3      OH2           -31.6852887078      -21.2516963765        5.0400558414  W2        3315            0.0000000000
      9944      3315  TIP3      H1            -31.6777587078      -21.3877263765        4.0926058414  W2        3315            0.0000000000
      9945      3315  TIP3      H2            -32.6012487078      -21.3688863765        5.2920558414  W2        3315            0.0000000000
      9946      3316  TIP3      OH2           -20.2470787078      -36.2093163765       -8.4584241586  W2        3316            0.0000000000
      9947      3316  TIP3      H1            -21.1470087078      -36.0704163765       -8.1633641586  W2        3316            0.0000000000
      9948      3316  TIP3      H2            -19.9952387078      -35.3778563765       -8.8602541586  W2        3316            0.0000000000
      9949      3317  TIP3      OH2           -32.1812287078      -27.4215963765       -6.4847341586  W2        3317            0.0000000000
      9950      3317  TIP3      H1            -32.4730987078      -26.6534263765       -6.9756041586  W2        3317            0.0000000000
      9951      3317  TIP3      H2            -32.8557087078      -28.0809763765       -6.6475941586  W2        3317            0.0000000000
      9952      3318  TIP3      OH2           -19.0579387078      -21.8430763765      -10.0820341586  W2        3318            0.0000000000
      9953      3318  TIP3      H1            -18.9845887078      -20.9040563765       -9.9115041586  W2        3318            0.0000000000
      9954      3318  TIP3      H2            -18.1524287078      -22.1482163765      -10.1383041586  W2        3318            0.0000000000
      9955      3319  TIP3      OH2           -36.0882187078      -25.0586763765        2.3302458414  W2        3319            0.0000000000
      9956      3319  TIP3      H1            -36.5893787078      -25.0867363765        1.5152158414  W2        3319            0.0000000000
      9957      3319  TIP3      H2            -36.0828487078      -25.9643563765        2.6399758414  W2        3319            0.0000000000
      9958      3320  TIP3      OH2           -36.3379487078      -22.2782963765       -0.7857341586  W2        3320            0.0000000000
      9959      3320  TIP3      H1            -35.3918887078      -22.4225963765       -0.8047841586  W2        3320            0.0000000000
      9960      3320  TIP3      H2            -36.4503187078      -21.4940163765       -0.2486141586  W2        3320            0.0000000000
      9961      3321  TIP3      OH2           -18.1400987078      -21.6123263765        4.8966358414  W2        3321            0.0000000000
      9962      3321  TIP3      H1            -18.1894187078      -22.5675163765        4.8593958414  W2        3321            0.0000000000
      9963      3321  TIP3      H2            -18.9668687078      -21.3447963765        5.2980158414  W2        3321            0.0000000000
      9964      3322  TIP3      OH2           -27.1616987078      -22.0384063765        3.7727758414  W2        3322            0.0000000000
      9965      3322  TIP3      H1            -27.0742387078      -21.2119463765        4.2476858414  W2        3322            0.0000000000
      9966      3322  TIP3      H2            -28.0251887078      -22.3680263765        4.0217058414  W2        3322            0.0000000000
      9967      3323  TIP3      OH2           -26.7471187078      -18.2660363765       -6.4211641586  W2        3323            0.0000000000
      9968      3323  TIP3      H1            -26.8225187078      -18.3873163765       -7.3676441586  W2        3323            0.0000000000
      9969      3323  TIP3      H2            -26.7142487078      -17.3167663765       -6.3027041586  W2        3323            0.0000000000
      9970      3324  TIP3      OH2           -33.0937387078      -19.4773363765       -4.6402641586  W2        3324            0.0000000000
      9971      3324  TIP3      H1            -32.9416987078      -19.8252963765       -3.7616141586  W2        3324            0.0000000000
      9972      3324  TIP3      H2            -33.9446987078      -19.8336063765       -4.8955441586  W2        3324            0.0000000000
      9973      3325  TIP3      OH2           -23.6455187078      -19.1120163765       -9.4189241586  W2        3325            0.0000000000
      9974      3325  TIP3      H1            -23.2706787078      -19.8564063765       -9.8896641586  W2        3325            0.0000000000
      9975      3325  TIP3      H2            -23.6411487078      -19.3819563765       -8.5005941586  W2        3325            0.0000000000
      9976      3326  TIP3      OH2           -23.9767087078      -19.1863063765       -6.6697041586  W2        3326            0.0000000000
      9977      3326  TIP3      H1            -24.9117287078      -19.0861163765       -6.4910041586  W2        3326            0.0000000000
      9978      3326  TIP3      H2            -23.6965187078      -19.8957063765       -6.0913841586  W2        3326            0.0000000000
      9979      3327  TIP3      OH2           -20.9881187078      -30.1190763765        5.3768558414  W2        3327            0.0000000000
      9980      3327  TIP3      H1            -21.3954387078      -29.6385163765        4.6561858414  W2        3327            0.0000000000
      9981      3327  TIP3      H2            -20.9475487078      -31.0244763765        5.0689358414  W2        3327            0.0000000000
      9982      3328  TIP3      OH2           -33.8391687078      -23.7351363765        3.3735258414  W2        3328            0.0000000000
      9983      3328  TIP3      H1            -33.6230387078      -24.0965763765        4.2331058414  W2        3328            0.0000000000
      9984      3328  TIP3      H2            -34.6946987078      -24.1097563765        3.1638758414  W2        3328            0.0000000000
      9985      3329  TIP3      OH2           -31.2203687078      -35.2650863765       -0.6310541586  W2        3329            0.0000000000
      9986      3329  TIP3      H1            -32.0819987078      -35.3522663765       -1.0387641586  W2        3329            0.0000000000
      9987      3329  TIP3      H2            -31.2427987078      -34.4090763765       -0.2032941586  W2        3329            0.0000000000
      9988      3330  TIP3      OH2           -26.5575887078      -35.5430463765        2.7436458414  W2        3330            0.0000000000
      9989      3330  TIP3      H1            -26.1372787078      -35.9583363765        3.4967058414  W2        3330            0.0000000000
      9990      3330  TIP3      H2            -27.4906287078      -35.7217163765        2.8608458414  W2        3330            0.0000000000
      9991      3331  TIP3      OH2           -23.2310987078      -31.7875263765        3.5970958414  W2        3331            0.0000000000
      9992      3331  TIP3      H1            -23.7451487078      -31.9133063765        4.3946958414  W2        3331            0.0000000000
      9993      3331  TIP3      H2            -23.3866287078      -30.8752163765        3.3527158414  W2        3331            0.0000000000
      9994      3332  TIP3      OH2           -22.4686087078      -26.9265263765      -10.6416041586  W2        3332            0.0000000000
      9995      3332  TIP3      H1            -22.4265287078      -27.1491363765      -11.5716041586  W2        3332            0.0000000000
      9996      3332  TIP3      H2            -21.6193987078      -26.5278163765      -10.4516141586  W2        3332            0.0000000000
      9997      3333  TIP3      OH2           -26.8958587078      -33.0507063765       -9.9712741586  W2        3333            0.0000000000
      9998      3333  TIP3      H1            -27.1493787078      -33.0315463765       -9.0484641586  W2        3333            0.0000000000
      9999      3333  TIP3      H2            -27.1526487078      -33.9221663765      -10.2726541586  W2        3333            0.0000000000
     10000      3334  TIP3      OH2           -31.1293587078      -30.2996363765        0.4639658414  W2        3334            0.0000000000
     10001      3334  TIP3      H1            -31.7711487078      -30.3399063765        1.1729758414  W2        3334            0.0000000000
     10002      3334  TIP3      H2            -31.0921587078      -29.3731663765        0.2262658414  W2        3334            0.0000000000
     10003      3335  TIP3      OH2           -31.1324487078      -30.0786263765       -4.6240341586  W2        3335            0.0000000000
     10004      3335  TIP3      H1            -32.0251587078      -30.4190163765       -4.6826541586  W2        3335            0.0000000000
     10005      3335  TIP3      H2            -30.6817887078      -30.4555363765       -5.3797141586  W2        3335            0.0000000000
     10006      3336  TIP3      OH2           -25.5968987078      -29.6625963765       -5.8069541586  W2        3336            0.0000000000
     10007      3336  TIP3      H1            -26.0058687078      -28.8477363765       -6.0984741586  W2        3336            0.0000000000
     10008      3336  TIP3      H2            -24.8762787078      -29.8025863765       -6.4212441586  W2        3336            0.0000000000
     10009      3337  TIP3      OH2           -26.4947387078      -29.4869563765        5.6811158414  W2        3337            0.0000000000
     10010      3337  TIP3      H1            -27.0573587078      -30.1917963765        6.0018958414  W2        3337            0.0000000000
     10011      3337  TIP3      H2            -25.6683987078      -29.6077663765        6.1488758414  W2        3337            0.0000000000
     10012      3338  TIP3      OH2           -24.5921287078      -30.2165563765       -2.9929841586  W2        3338            0.0000000000
     10013      3338  TIP3      H1            -24.7876787078      -29.6108763765       -3.7079241586  W2        3338            0.0000000000
     10014      3338  TIP3      H2            -24.4108687078      -31.0500363765       -3.4273541586  W2        3338            0.0000000000
     10015      3339  TIP3      OH2           -33.3793087078      -29.9792863765        2.3311658414  W2        3339            0.0000000000
     10016      3339  TIP3      H1            -33.4173687078      -29.5791263765        3.1998758414  W2        3339            0.0000000000
     10017      3339  TIP3      H2            -33.8701987078      -30.7960463765        2.4214558414  W2        3339            0.0000000000
     10018      3340  TIP3      OH2           -30.0135687078      -32.6050563765      -10.8702341586  W2        3340            0.0000000000
     10019      3340  TIP3      H1            -30.4444987078      -33.0500463765      -10.1404941586  W2        3340            0.0000000000
     10020      3340  TIP3      H2            -30.7316987078      -32.2334263765      -11.3824841586  W2        3340            0.0000000000
     10021      3341  TIP3      OH2           -36.7712287078      -32.8631063765       -3.8183641586  W2        3341            0.0000000000
     10022      3341  TIP3      H1            -36.1404587078      -32.8918963765       -3.0989741586  W2        3341            0.0000000000
     10023      3341  TIP3      H2            -36.3217987078      -33.2882363765       -4.5487741586  W2        3341            0.0000000000
     10024      3342  TIP3      OH2           -35.4970187078      -32.1169063765       -8.3943241586  W2        3342            0.0000000000
     10025      3342  TIP3      H1            -35.0228487078      -31.5259163765       -8.9792341586  W2        3342            0.0000000000
     10026      3342  TIP3      H2            -36.2143787078      -31.5866163765       -8.0473141586  W2        3342            0.0000000000
     10027      3343  TIP3      OH2           -25.3282087078      -28.5784263765        1.6782558414  W2        3343            0.0000000000
     10028      3343  TIP3      H1            -25.0047287078      -29.2094563765        1.0353058414  W2        3343            0.0000000000
     10029      3343  TIP3      H2            -25.7682787078      -29.1132063765        2.3389958414  W2        3343            0.0000000000
     10030      3344  TIP3      OH2           -28.5509187078      -32.6508763765       -3.5376241586  W2        3344            0.0000000000
     10031      3344  TIP3      H1            -29.4618087078      -32.5941963765       -3.2490241586  W2        3344            0.0000000000
     10032      3344  TIP3      H2            -28.0456287078      -32.7113263765       -2.7269041586  W2        3344            0.0000000000
     10033      3345  TIP3      OH2           -33.7225787078      -31.0222463765       -4.7108641586  W2        3345            0.0000000000
     10034      3345  TIP3      H1            -34.6117787078      -30.9226963765       -5.0509041586  W2        3345            0.0000000000
     10035      3345  TIP3      H2            -33.4260887078      -31.8639463765       -5.0570741586  W2        3345            0.0000000000
     10036      3346  TIP3      OH2           -30.0693987078      -31.0219863765       -7.0544041586  W2        3346            0.0000000000
     10037      3346  TIP3      H1            -29.1378487078      -30.8929863765       -6.8760941586  W2        3346            0.0000000000
     10038      3346  TIP3      H2            -30.2843687078      -30.3525563765       -7.7039341586  W2        3346            0.0000000000
     10039      3347  TIP3      OH2           -24.1457287078      -33.4162463765       -0.2734441586  W2        3347            0.0000000000
     10040      3347  TIP3      H1            -24.8225687078      -33.2849363765        0.3905258414  W2        3347            0.0000000000
     10041      3347  TIP3      H2            -24.6312387078      -33.5712963765       -1.0836741586  W2        3347            0.0000000000
     10042      3348  TIP3      OH2           -31.3953787078      -29.8277663765       -9.4877941586  W2        3348            0.0000000000
     10043      3348  TIP3      H1            -31.9378687078      -30.2073863765      -10.1790341586  W2        3348            0.0000000000
     10044      3348  TIP3      H2            -30.5618887078      -29.6332963765       -9.9163841586  W2        3348            0.0000000000
     10045      3349  TIP3      OH2           -20.8582187078      -17.7447063765        6.0033158414  W2        3349            0.0000000000
     10046      3349  TIP3      H1            -20.6583487078      -17.3205163765        5.1688458414  W2        3349            0.0000000000
     10047      3349  TIP3      H2            -20.2028487078      -17.4008863765        6.6103558414  W2        3349            0.0000000000
     10048      3350  TIP3      OH2           -33.2602387078      -25.2705763765        5.6113658414  W2        3350            0.0000000000
     10049      3350  TIP3      H1            -32.5279987078      -25.0159863765        6.1728158414  W2        3350            0.0000000000
     10050      3350  TIP3      H2            -34.0403687078      -25.0660363765        6.1269058414  W2        3350            0.0000000000
     10051      3351  TIP3      OH2           -27.2309487078      -29.8635763765       -1.6506641586  W2        3351            0.0000000000
     10052      3351  TIP3      H1            -26.6666087078      -30.4099163765       -2.1977041586  W2        3351            0.0000000000
     10053      3351  TIP3      H2            -27.3786087078      -30.3853863765       -0.8619041586  W2        3351            0.0000000000
     10054      3352  TIP3      OH2           -32.2289787078      -33.7269663765       -5.2321841586  W2        3352            0.0000000000
     10055      3352  TIP3      H1            -32.5460287078      -34.6294363765       -5.2676441586  W2        3352            0.0000000000
     10056      3352  TIP3      H2            -31.4475687078      -33.7252263765       -5.7850241586  W2        3352            0.0000000000
     10057      3353  TIP3      OH2           -28.6043587078      -31.4749663765        0.7633758414  W2        3353            0.0000000000
     10058      3353  TIP3      H1            -29.4398287078      -31.0210163765        0.8736158414  W2        3353            0.0000000000
     10059      3353  TIP3      H2            -28.0802987078      -31.1991163765        1.5153658414  W2        3353            0.0000000000
     10060      3354  TIP3      OH2           -28.0600987078      -25.2621963765       -7.5519841586  W2        3354            0.0000000000
     10061      3354  TIP3      H1            -28.8049987078      -25.7696663765       -7.8741941586  W2        3354            0.0000000000
     10062      3354  TIP3      H2            -28.1943787078      -25.2133963765       -6.6055041586  W2        3354            0.0000000000
     10063      3355  TIP3      OH2           -20.9102087078      -26.1293763765        1.2347758414  W2        3355            0.0000000000
     10064      3355  TIP3      H1            -20.2683287078      -25.6727463765        0.6909958414  W2        3355            0.0000000000
     10065      3355  TIP3      H2            -21.7405187078      -26.0161363765        0.7721858414  W2        3355            0.0000000000
     10066      3356  TIP3      OH2           -24.1624187078      -32.4482063765       -9.3527241586  W2        3356            0.0000000000
     10067      3356  TIP3      H1            -25.1009987078      -32.3366463765       -9.5038441586  W2        3356            0.0000000000
     10068      3356  TIP3      H2            -23.8652087078      -31.5915163765       -9.0461541586  W2        3356            0.0000000000
     10069      3357  TIP3      OH2           -26.5408887078      -25.0778663765        3.6849258414  W2        3357            0.0000000000
     10070      3357  TIP3      H1            -26.8862787078      -25.4596263765        4.4918858414  W2        3357            0.0000000000
     10071      3357  TIP3      H2            -26.7408787078      -24.1445063765        3.7562158414  W2        3357            0.0000000000
     10072      3358  TIP3      OH2           -23.4440687078      -30.5809363765       -7.6919841586  W2        3358            0.0000000000
     10073      3358  TIP3      H1            -22.5521687078      -30.7184363765       -7.3728641586  W2        3358            0.0000000000
     10074      3358  TIP3      H2            -23.3877087078      -29.7903263765       -8.2286341586  W2        3358            0.0000000000
     10075      3359  TIP3      OH2           -32.9352687078      -25.9671963765       -1.7821941586  W2        3359            0.0000000000
     10076      3359  TIP3      H1            -32.1905487078      -25.9696263765       -2.3835441586  W2        3359            0.0000000000
     10077      3359  TIP3      H2            -32.8576087078      -26.7908163765       -1.3006841586  W2        3359            0.0000000000
     10078      3360  TIP3      OH2           -25.9346887078      -23.8037663765       -8.5265241586  W2        3360            0.0000000000
     10079      3360  TIP3      H1            -26.2298487078      -22.9769763765       -8.1450441586  W2        3360            0.0000000000
     10080      3360  TIP3      H2            -26.6376887078      -24.4230763765       -8.3303841586  W2        3360            0.0000000000
     10081      3361  TIP3      OH2           -35.9272987078      -27.5065063765        3.5326558414  W2        3361            0.0000000000
     10082      3361  TIP3      H1            -35.7044387078      -27.9245463765        4.3644058414  W2        3361            0.0000000000
     10083      3361  TIP3      H2            -36.5292887078      -28.1190063765        3.1099358414  W2        3361            0.0000000000
     10084      3362  TIP3      OH2           -28.9108087078      -27.9895163765        5.7456258414  W2        3362            0.0000000000
     10085      3362  TIP3      H1            -29.2067287078      -28.1552163765        4.8505358414  W2        3362            0.0000000000
     10086      3362  TIP3      H2            -27.9792887078      -28.2094863765        5.7350158414  W2        3362            0.0000000000
     10087      3363  TIP3      OH2           -24.2905287078      -22.6163163765        3.6354258414  W2        3363            0.0000000000
     10088      3363  TIP3      H1            -25.1910987078      -22.4330563765        3.3678158414  W2        3363            0.0000000000
     10089      3363  TIP3      H2            -24.2564187078      -22.3573863765        4.5563058414  W2        3363            0.0000000000
     10090      3364  TIP3      OH2           -18.5591987078      -30.3715263765       -7.9973141586  W2        3364            0.0000000000
     10091      3364  TIP3      H1            -19.1135687078      -30.7677263765       -8.6695641586  W2        3364            0.0000000000
     10092      3364  TIP3      H2            -18.4588387078      -29.4610063765       -8.2749841586  W2        3364            0.0000000000
     10093      3365  TIP3      OH2           -18.5959987078      -24.5713563765        4.8398358414  W2        3365            0.0000000000
     10094      3365  TIP3      H1            -19.4471487078      -24.3329763765        4.4724758414  W2        3365            0.0000000000
     10095      3365  TIP3      H2            -18.0056587078      -24.5880363765        4.0865458414  W2        3365            0.0000000000
     10096      3366  TIP3      OH2           -20.2640287078      -21.5854863765       -7.5321041586  W2        3366            0.0000000000
     10097      3366  TIP3      H1            -20.6369187078      -22.4111063765       -7.2230441586  W2        3366            0.0000000000
     10098      3366  TIP3      H2            -19.9866787078      -21.7685463765       -8.4297641586  W2        3366            0.0000000000
     10099      3367  TIP3      OH2           -23.1036387078      -26.7775363765       -0.5109141586  W2        3367            0.0000000000
     10100      3367  TIP3      H1            -24.0319487078      -27.0093463765       -0.5379841586  W2        3367            0.0000000000
     10101      3367  TIP3      H2            -22.6525287078      -27.5545563765       -0.8410341586  W2        3367            0.0000000000
     10102      3368  TIP3      OH2           -30.5603287078      -22.4493763765       -4.3780441586  W2        3368            0.0000000000
     10103      3368  TIP3      H1            -30.0331087078      -21.6759363765       -4.5781641586  W2        3368            0.0000000000
     10104      3368  TIP3      H2            -31.4404787078      -22.2244563765       -4.6796441586  W2        3368            0.0000000000
     10105      3369  TIP3      OH2           -34.8055587078      -27.5869663765       -9.7908041586  W2        3369            0.0000000000
     10106      3369  TIP3      H1            -34.1895687078      -26.9602463765       -9.4113241586  W2        3369            0.0000000000
     10107      3369  TIP3      H2            -35.6672987078      -27.2709863765       -9.5191541586  W2        3369            0.0000000000
     10108      3370  TIP3      OH2           -29.1330987078      -24.7863863765       -4.8016141586  W2        3370            0.0000000000
     10109      3370  TIP3      H1            -29.3740987078      -23.8609463765       -4.7600841586  W2        3370            0.0000000000
     10110      3370  TIP3      H2            -29.8737387078      -25.2452563765       -4.4052241586  W2        3370            0.0000000000
     10111      3371  TIP3      OH2           -28.6184387078      -20.6370263765        1.5134958414  W2        3371            0.0000000000
     10112      3371  TIP3      H1            -28.2559687078      -19.7824663765        1.2799358414  W2        3371            0.0000000000
     10113      3371  TIP3      H2            -28.0869187078      -20.9288663765        2.2541258414  W2        3371            0.0000000000
     10114      3372  TIP3      OH2           -30.4500187078      -19.7646263765       -5.2563941586  W2        3372            0.0000000000
     10115      3372  TIP3      H1            -31.3999687078      -19.6588863765       -5.2050641586  W2        3372            0.0000000000
     10116      3372  TIP3      H2            -30.0982087078      -18.9438863765       -4.9116441586  W2        3372            0.0000000000
     10117      3373  TIP3      OH2           -25.0743587078      -24.5379563765        1.2140558414  W2        3373            0.0000000000
     10118      3373  TIP3      H1            -25.5002287078      -24.7657863765        2.0404558414  W2        3373            0.0000000000
     10119      3373  TIP3      H2            -24.4937787078      -25.2767763765        1.0315858414  W2        3373            0.0000000000
     10120      3374  TIP3      OH2           -22.8714687078      -23.6089063765       -9.7120441586  W2        3374            0.0000000000
     10121      3374  TIP3      H1            -22.5181587078      -23.9889263765       -8.9076941586  W2        3374            0.0000000000
     10122      3374  TIP3      H2            -23.8201187078      -23.7024263765       -9.6251141586  W2        3374            0.0000000000
     10123      3375  TIP3      OH2           -22.4159387078      -19.9860063765        3.6835358414  W2        3375            0.0000000000
     10124      3375  TIP3      H1            -23.0176187078      -20.5417163765        3.1881658414  W2        3375            0.0000000000
     10125      3375  TIP3      H2            -22.1345687078      -19.3190263765        3.0572758414  W2        3375            0.0000000000
     10126      3376  TIP3      OH2           -18.3680287078      -19.1296563765       -9.5110241586  W2        3376            0.0000000000
     10127      3376  TIP3      H1            -17.6242387078      -18.5436063765       -9.6508641586  W2        3376            0.0000000000
     10128      3376  TIP3      H2            -19.0622187078      -18.5610763765       -9.1777841586  W2        3376            0.0000000000
     10129      3377  TIP3      OH2           -34.2933487078      -32.7532363765        3.0907958414  W2        3377            0.0000000000
     10130      3377  TIP3      H1            -35.1861187078      -32.4146963765        3.0231958414  W2        3377            0.0000000000
     10131      3377  TIP3      H2            -34.3920687078      -33.6086263765        3.5088758414  W2        3377            0.0000000000
     10132      3378  TIP3      OH2           -22.0055387078      -24.9367063765       -7.4852541586  W2        3378            0.0000000000
     10133      3378  TIP3      H1            -22.2827787078      -25.6647763765       -6.9291441586  W2        3378            0.0000000000
     10134      3378  TIP3      H2            -21.0782387078      -24.8175063765       -7.2799941586  W2        3378            0.0000000000
     10135      3379  TIP3      OH2           -34.6421487078      -20.9487963765        1.5257358414  W2        3379            0.0000000000
     10136      3379  TIP3      H1            -34.4251187078      -21.8805563765        1.4947058414  W2        3379            0.0000000000
     10137      3379  TIP3      H2            -34.3957987078      -20.6742963765        2.4090158414  W2        3379            0.0000000000
     10138      3380  TIP3      OH2           -28.7806887078      -22.4972963765      -11.2650441586  W2        3380            0.0000000000
     10139      3380  TIP3      H1            -28.5417087078      -23.2454863765      -11.8121541586  W2        3380            0.0000000000
     10140      3380  TIP3      H2            -29.0495587078      -22.8851263765      -10.4322641586  W2        3380            0.0000000000
     10141      3381  TIP3      OH2           -29.8436287078      -22.9269163765       -8.8087841586  W2        3381            0.0000000000
     10142      3381  TIP3      H1            -29.6968287078      -23.4469363765       -8.0186941586  W2        3381            0.0000000000
     10143      3381  TIP3      H2            -29.8464587078      -22.0201563765       -8.5021941586  W2        3381            0.0000000000
     10144      3382  TIP3      OH2           -33.3905187078      -25.6745863765       -8.2982441586  W2        3382            0.0000000000
     10145      3382  TIP3      H1            -34.0765887078      -25.3223363765       -7.7312741586  W2        3382            0.0000000000
     10146      3382  TIP3      H2            -32.8677287078      -24.9116263765       -8.5448141586  W2        3382            0.0000000000
     10147      3383  TIP3      OH2           -25.5590087078      -33.0122063765        1.9806558414  W2        3383            0.0000000000
     10148      3383  TIP3      H1            -24.8602187078      -32.9383363765        2.6306258414  W2        3383            0.0000000000
     10149      3383  TIP3      H2            -25.9398687078      -33.8767063765        2.1349458414  W2        3383            0.0000000000
     10150      3384  TIP3      OH2           -24.7745187078      -33.3600363765       -6.9221141586  W2        3384            0.0000000000
     10151      3384  TIP3      H1            -24.5546887078      -32.8884963765       -7.7255741586  W2        3384            0.0000000000
     10152      3384  TIP3      H2            -24.2161187078      -32.9657763765       -6.2520541586  W2        3384            0.0000000000
     10153      3385  TIP3      OH2           -27.1059087078      -21.2295563765       -8.0593641586  W2        3385            0.0000000000
     10154      3385  TIP3      H1            -27.9222987078      -20.7325863765       -8.0069341586  W2        3385            0.0000000000
     10155      3385  TIP3      H2            -26.5762787078      -20.7542063765       -8.6994841586  W2        3385            0.0000000000
     10156      3386  TIP3      OH2           -27.5745287078      -31.6321563765       -6.0872741586  W2        3386            0.0000000000
     10157      3386  TIP3      H1            -26.7622687078      -31.1278363765       -6.0411041586  W2        3386            0.0000000000
     10158      3386  TIP3      H2            -27.8192287078      -31.7771863765       -5.1733141586  W2        3386            0.0000000000
     10159      3387  TIP3      OH2           -27.0388887078      -30.6458863765        3.0973858414  W2        3387            0.0000000000
     10160      3387  TIP3      H1            -26.9198587078      -30.0723463765        3.8544258414  W2        3387            0.0000000000
     10161      3387  TIP3      H2            -26.3834287078      -31.3339463765        3.2121658414  W2        3387            0.0000000000
     10162      3388  TIP3      OH2           -26.6908587078      -34.5508563765       -5.1491641586  W2        3388            0.0000000000
     10163      3388  TIP3      H1            -27.0375087078      -33.9337963765       -4.5047341586  W2        3388            0.0000000000
     10164      3388  TIP3      H2            -26.0321687078      -34.0502863765       -5.6306141586  W2        3388            0.0000000000
     10165      3389  TIP3      OH2           -29.7675987078      -20.1858363765       -8.0776741586  W2        3389            0.0000000000
     10166      3389  TIP3      H1            -29.6067287078      -19.3860863765       -8.5784141586  W2        3389            0.0000000000
     10167      3389  TIP3      H2            -29.9648187078      -19.8792363765       -7.1926141586  W2        3389            0.0000000000
     10168      3390  TIP3      OH2           -31.0331587078      -33.4879163765       -8.4619141586  W2        3390            0.0000000000
     10169      3390  TIP3      H1            -31.1166787078      -32.5996063765       -8.1152741586  W2        3390            0.0000000000
     10170      3390  TIP3      H2            -30.1431287078      -33.7532463765       -8.2302341586  W2        3390            0.0000000000
     10171      3391  TIP3      OH2           -20.8343087078      -32.7388563765        3.9323558414  W2        3391            0.0000000000
     10172      3391  TIP3      H1            -21.7507287078      -32.4766863765        3.8447258414  W2        3391            0.0000000000
     10173      3391  TIP3      H2            -20.4988087078      -32.7419563765        3.0358858414  W2        3391            0.0000000000
     10174      3392  TIP3      OH2           -22.2322087078      -28.9887563765       -1.9719141586  W2        3392            0.0000000000
     10175      3392  TIP3      H1            -23.0297687078      -29.4037363765       -2.3004141586  W2        3392            0.0000000000
     10176      3392  TIP3      H2            -21.7870987078      -29.6793863765       -1.4808641586  W2        3392            0.0000000000
     10177      3393  TIP3      OH2           -32.7746287078      -23.0606963765       -9.4014641586  W2        3393            0.0000000000
     10178      3393  TIP3      H1            -32.1824787078      -22.3612163765       -9.1252241586  W2        3393            0.0000000000
     10179      3393  TIP3      H2            -32.3153287078      -23.4937463765      -10.1210041586  W2        3393            0.0000000000
     10180      3394  TIP3      OH2           -34.4587087078      -30.3963963765      -10.2855241586  W2        3394            0.0000000000
     10181      3394  TIP3      H1            -34.5034487078      -29.4570863765      -10.1068241586  W2        3394            0.0000000000
     10182      3394  TIP3      H2            -35.3463887078      -30.6319063765      -10.5553141586  W2        3394            0.0000000000
     10183      3395  TIP3      OH2           -21.1457487078      -19.7325063765       -0.3495641586  W2        3395            0.0000000000
     10184      3395  TIP3      H1            -21.3013187078      -19.0540663765       -1.0066341586  W2        3395            0.0000000000
     10185      3395  TIP3      H2            -20.2131087078      -19.6605763765       -0.1465041586  W2        3395            0.0000000000
     10186      3396  TIP3      OH2           -33.6505087078      -35.6147363765       -1.6124241586  W2        3396            0.0000000000
     10187      3396  TIP3      H1            -33.8795287078      -35.5554863765       -2.5399241586  W2        3396            0.0000000000
     10188      3396  TIP3      H2            -34.0931687078      -36.4061863765       -1.3060141586  W2        3396            0.0000000000
     10189      3397  TIP3      OH2           -34.7201787078      -21.6740263765       -5.4518441586  W2        3397            0.0000000000
     10190      3397  TIP3      H1            -35.5523187078      -21.2017563765       -5.4247041586  W2        3397            0.0000000000
     10191      3397  TIP3      H2            -34.1743487078      -21.1642663765       -6.0505341586  W2        3397            0.0000000000
     10192      3398  TIP3      OH2           -35.4318087078      -19.0616563765        5.8779558414  W2        3398            0.0000000000
     10193      3398  TIP3      H1            -34.8915887078      -19.2782563765        6.6378758414  W2        3398            0.0000000000
     10194      3398  TIP3      H2            -35.9130087078      -19.8670563765        5.6882058414  W2        3398            0.0000000000
     10195      3399  TIP3      OH2           -30.8344687078      -20.1422163765        7.4983758414  W2        3399            0.0000000000
     10196      3399  TIP3      H1            -30.0667487078      -20.6011363765        7.8392958414  W2        3399            0.0000000000
     10197      3399  TIP3      H2            -30.8558487078      -20.3682363765        6.5684958414  W2        3399            0.0000000000
     10198      3400  TIP3      OH2           -26.7425087078      -20.6341563765      -11.1264441586  W2        3400            0.0000000000
     10199      3400  TIP3      H1            -27.3864087078      -21.2652963765      -10.8050741586  W2        3400            0.0000000000
     10200      3400  TIP3      H2            -25.9806787078      -21.1653563765      -11.3580941586  W2        3400            0.0000000000
     10201      3401  TIP3      OH2           -24.2575987078      -21.7621063765        6.2275258414  W2        3401            0.0000000000
     10202      3401  TIP3      H1            -24.6086487078      -22.6188063765        6.4705658414  W2        3401            0.0000000000
     10203      3401  TIP3      H2            -23.5312787078      -21.6194363765        6.8344258414  W2        3401            0.0000000000
     10204      3402  TIP3      OH2           -22.1382187078      -20.8171663765      -10.8926441586  W2        3402            0.0000000000
     10205      3402  TIP3      H1            -21.8551787078      -21.6116463765      -10.4399541586  W2        3402            0.0000000000
     10206      3402  TIP3      H2            -21.3984287078      -20.5840663765      -11.4535341586  W2        3402            0.0000000000
     10207      3403  TIP3      OH2           -35.5248587078      -25.2512463765        6.8323858414  W2        3403            0.0000000000
     10208      3403  TIP3      H1            -35.3808087078      -26.1531763765        6.5460558414  W2        3403            0.0000000000
     10209      3403  TIP3      H2            -36.2971187078      -24.9650363765        6.3446158414  W2        3403            0.0000000000
     10210      3404  TIP3      OH2           -31.1834887078      -24.9076763765      -11.0351541586  W2        3404            0.0000000000
     10211      3404  TIP3      H1            -31.1190787078      -25.7017163765      -10.5045141586  W2        3404            0.0000000000
     10212      3404  TIP3      H2            -30.5305687078      -25.0263963765      -11.7249541586  W2        3404            0.0000000000
     10213      3405  TIP3      OH2           -28.8692487078      -25.2814363765        6.2650258414  W2        3405            0.0000000000
     10214      3405  TIP3      H1            -29.1978687078      -25.0106263765        5.4077658414  W2        3405            0.0000000000
     10215      3405  TIP3      H2            -28.7174287078      -26.2224563765        6.1775258414  W2        3405            0.0000000000
     10216      3406  TIP3      OH2           -25.8311487078      -23.8605063765      -11.2993541586  W2        3406            0.0000000000
     10217      3406  TIP3      H1            -26.0997387078      -23.6802963765      -10.3984641586  W2        3406            0.0000000000
     10218      3406  TIP3      H2            -26.0375887078      -24.7858863765      -11.4307741586  W2        3406            0.0000000000
     10219      3407  TIP3      OH2           -23.1347287078      -25.3657063765        3.6482558414  W2        3407            0.0000000000
     10220      3407  TIP3      H1            -22.3892487078      -24.7773363765        3.5286558414  W2        3407            0.0000000000
     10221      3407  TIP3      H2            -23.8920487078      -24.7837363765        3.7115658414  W2        3407            0.0000000000
     10222      3408  TIP3      OH2           -34.6922087078      -28.0509163765        6.2523158414  W2        3408            0.0000000000
     10223      3408  TIP3      H1            -34.2840887078      -28.9082563765        6.1313758414  W2        3408            0.0000000000
     10224      3408  TIP3      H2            -34.9524487078      -28.0367863765        7.1733458414  W2        3408            0.0000000000
     10225      3409  TIP3      OH2           -30.0341087078      -26.9350563765       -8.7293541586  W2        3409            0.0000000000
     10226      3409  TIP3      H1            -30.4939087078      -27.4192263765       -8.0435041586  W2        3409            0.0000000000
     10227      3409  TIP3      H2            -29.7792387078      -27.6035163765       -9.3653041586  W2        3409            0.0000000000
     10228      3410  TIP3      OH2           -30.7451787078      -29.0423463765        3.6266058414  W2        3410            0.0000000000
     10229      3410  TIP3      H1            -31.3635687078      -28.3676863765        3.9070758414  W2        3410            0.0000000000
     10230      3410  TIP3      H2            -30.4010587078      -28.7209563765        2.7932258414  W2        3410            0.0000000000
     10231      3411  TIP3      OH2           -28.9630687078      -28.6918763765      -10.4670341586  W2        3411            0.0000000000
     10232      3411  TIP3      H1            -29.1435687078      -28.8467563765      -11.3942041586  W2        3411            0.0000000000
     10233      3411  TIP3      H2            -28.0130187078      -28.5840063765      -10.4222441586  W2        3411            0.0000000000
     10234      3412  TIP3      OH2           -25.7253587078      -26.5708163765        6.9040858414  W2        3412            0.0000000000
     10235      3412  TIP3      H1            -24.7722387078      -26.4869063765        6.8766858414  W2        3412            0.0000000000
     10236      3412  TIP3      H2            -25.8858987078      -27.2826363765        7.5235758414  W2        3412            0.0000000000
     10237      3413  TIP3      OH2           -19.5732387078      -26.3374563765      -11.0212241586  W2        3413            0.0000000000
     10238      3413  TIP3      H1            -19.8467587078      -26.7619063765      -11.8343941586  W2        3413            0.0000000000
     10239      3413  TIP3      H2            -19.5338287078      -25.4060063765      -11.2381841586  W2        3413            0.0000000000
     10240      3414  TIP3      OH2           -30.4058087078      -31.6872663765        4.7089158414  W2        3414            0.0000000000
     10241      3414  TIP3      H1            -30.2557187078      -32.4161363765        4.1068858414  W2        3414            0.0000000000
     10242      3414  TIP3      H2            -30.4035687078      -30.9100963765        4.1501358414  W2        3414            0.0000000000
     10243      3415  TIP3      OH2           -29.9932387078      -33.3176863765        2.2016558414  W2        3415            0.0000000000
     10244      3415  TIP3      H1            -29.4574887078      -32.8660163765        1.5495858414  W2        3415            0.0000000000
     10245      3415  TIP3      H2            -30.8452787078      -33.4257063765        1.7790658414  W2        3415            0.0000000000
     10246      3416  TIP3      OH2           -28.4113987078      -27.8780663765        2.4411758414  W2        3416            0.0000000000
     10247      3416  TIP3      H1            -27.6609187078      -28.0343163765        1.8679558414  W2        3416            0.0000000000
     10248      3416  TIP3      H2            -28.7505687078      -27.0264063765        2.1657258414  W2        3416            0.0000000000
     10249      3417  TIP3      OH2           -23.9957787078      -30.0628863765        7.4697058414  W2        3417            0.0000000000
     10250      3417  TIP3      H1            -23.8036487078      -30.9939463765        7.3581558414  W2        3417            0.0000000000
     10251      3417  TIP3      H2            -23.1381487078      -29.6379363765        7.4592458414  W2        3417            0.0000000000
     10252      3418  TIP3      OH2           -22.6790587078      -27.2743663765        5.5469758414  W2        3418            0.0000000000
     10253      3418  TIP3      H1            -22.9605587078      -26.5649063765        4.9693558414  W2        3418            0.0000000000
     10254      3418  TIP3      H2            -21.7366287078      -27.3470663765        5.3960958414  W2        3418            0.0000000000
     10255      3419  TIP3      OH2           -31.9271787078      -30.4889163765        6.6204758414  W2        3419            0.0000000000
     10256      3419  TIP3      H1            -32.6942787078      -31.0214363765        6.4102358414  W2        3419            0.0000000000
     10257      3419  TIP3      H2            -31.2482787078      -30.7988763765        6.0211058414  W2        3419            0.0000000000
     10258      3420  TIP3      OH2           -29.1876887078      -35.8611163765        2.6330158414  W2        3420            0.0000000000
     10259      3420  TIP3      H1            -29.2857287078      -34.9147963765        2.5276358414  W2        3420            0.0000000000
     10260      3420  TIP3      H2            -29.9300687078      -36.2337363765        2.1573658414  W2        3420            0.0000000000
     10261      3421  TIP3      OH2           -27.9236387078      -31.5395763765        6.1968558414  W2        3421            0.0000000000
     10262      3421  TIP3      H1            -28.1590987078      -31.7589063765        7.0983458414  W2        3421            0.0000000000
     10263      3421  TIP3      H2            -28.7069487078      -31.7464563765        5.6871058414  W2        3421            0.0000000000
     10264      3422  TIP3      OH2           -25.2079787078      -32.4122263765        5.2722058414  W2        3422            0.0000000000
     10265      3422  TIP3      H1            -26.1554387078      -32.3802563765        5.4045358414  W2        3422            0.0000000000
     10266      3422  TIP3      H2            -24.8953087078      -33.0375163765        5.9260258414  W2        3422            0.0000000000
     10267      3423  TIP3      OH2           -23.5738287078      -33.7781163765        7.2773958414  W2        3423            0.0000000000
     10268      3423  TIP3      H1            -23.6706487078      -34.7303863765        7.2715858414  W2        3423            0.0000000000
     10269      3423  TIP3      H2            -23.8955187078      -33.5094363765        8.1379458414  W2        3423            0.0000000000
     10270      3424  TIP3      OH2           -33.7468987078      -32.5685363765        6.3249458414  W2        3424            0.0000000000
     10271      3424  TIP3      H1            -33.5351587078      -33.2749263765        5.7146958414  W2        3424            0.0000000000
     10272      3424  TIP3      H2            -33.8581487078      -33.0059363765        7.1690658414  W2        3424            0.0000000000
     10273      3425  TIP3      OH2           -28.9658787078      -36.5673763765        5.3042958414  W2        3425            0.0000000000
     10274      3425  TIP3      H1            -28.2540387078      -37.2071563765        5.2902058414  W2        3425            0.0000000000
     10275      3425  TIP3      H2            -29.0668387078      -36.3005463765        4.3906058414  W2        3425            0.0000000000
     10276      3426  TIP3      OH2           -28.6121287078      -34.8845363765        7.3579258414  W2        3426            0.0000000000
     10277      3426  TIP3      H1            -28.7439087078      -35.3601563765        6.5377758414  W2        3426            0.0000000000
     10278      3426  TIP3      H2            -29.2113887078      -34.1401763765        7.3026358414  W2        3426            0.0000000000
     10279      3427  TIP3      OH2           -29.0658987078      -18.0015063765       -9.4656741586  W2        3427            0.0000000000
     10280      3427  TIP3      H1            -28.1328287078      -17.8436363765       -9.3218341586  W2        3427            0.0000000000
     10281      3427  TIP3      H2            -29.3300187078      -17.3262063765      -10.0905241586  W2        3427            0.0000000000
     10282      3428  TIP3      OH2           -35.4974087078      -23.3651263765       -9.9828641586  W2        3428            0.0000000000
     10283      3428  TIP3      H1            -34.5834887078      -23.2862363765       -9.7094741586  W2        3428            0.0000000000
     10284      3428  TIP3      H2            -35.4900987078      -24.0521663765      -10.6493041586  W2        3428            0.0000000000
     10285      3429  TIP3      OH2           -36.8483487078      -17.9722763765       -4.9054741586  W2        3429            0.0000000000
     10286      3429  TIP3      H1            -37.4956387078      -18.4341063765       -5.4383541586  W2        3429            0.0000000000
     10287      3429  TIP3      H2            -36.4938887078      -18.6439463765       -4.3228541586  W2        3429            0.0000000000
     10288      3430  TIP3      OH2           -35.9784287078      -19.8915763765       -3.1008541586  W2        3430            0.0000000000
     10289      3430  TIP3      H1            -36.3127487078      -20.7718463765       -2.9288341586  W2        3430            0.0000000000
     10290      3430  TIP3      H2            -35.7561887078      -19.5460763765       -2.2362941586  W2        3430            0.0000000000
     10291      3431  TIP3      OH2           -18.4299487078      -19.0819363765       -0.1203741586  W2        3431            0.0000000000
     10292      3431  TIP3      H1            -18.4512787078      -18.8970963765        0.8185658414  W2        3431            0.0000000000
     10293      3431  TIP3      H2            -17.7393287078      -18.5135363765       -0.4612341586  W2        3431            0.0000000000
     10294      3432  TIP3      OH2           -18.8666587078      -19.5148263765        2.8015358414  W2        3432            0.0000000000
     10295      3432  TIP3      H1            -19.3537887078      -20.2504163765        2.4302758414  W2        3432            0.0000000000
     10296      3432  TIP3      H2            -18.3173887078      -19.9084363765        3.4794758414  W2        3432            0.0000000000
     10297      3433  TIP3      OH2           -20.4159287078      -23.7250163765        7.4395658414  W2        3433            0.0000000000
     10298      3433  TIP3      H1            -21.2818187078      -23.8300463765        7.8337958414  W2        3433            0.0000000000
     10299      3433  TIP3      H2            -20.0393387078      -22.9666863765        7.8860358414  W2        3433            0.0000000000
     10300      3434  TIP3      OH2           -19.1149587078      -25.4686463765       -7.0461841586  W2        3434            0.0000000000
     10301      3434  TIP3      H1            -18.2648187078      -25.0475563765       -6.9190241586  W2        3434            0.0000000000
     10302      3434  TIP3      H2            -19.1094487078      -26.2086363765       -6.4390441586  W2        3434            0.0000000000
     10303      3435  TIP3      OH2           -18.7203987078      -27.4149063765       -5.2226141586  W2        3435            0.0000000000
     10304      3435  TIP3      H1            -19.4469387078      -27.8946463765       -4.8248541586  W2        3435            0.0000000000
     10305      3435  TIP3      H2            -18.1390687078      -27.2094363765       -4.4904541586  W2        3435            0.0000000000
     10306      3436  TIP3      OH2           -18.9612787078      -24.6301563765       -0.2748541586  W2        3436            0.0000000000
     10307      3436  TIP3      H1            -18.1278587078      -25.0081563765       -0.5554941586  W2        3436            0.0000000000
     10308      3436  TIP3      H2            -18.8492487078      -23.6870363765       -0.3939441586  W2        3436            0.0000000000
     10309      3437  TIP3      OH2           -20.4750487078      -21.7524063765        2.0319858414  W2        3437            0.0000000000
     10310      3437  TIP3      H1            -21.1225187078      -21.4272563765        2.6575058414  W2        3437            0.0000000000
     10311      3437  TIP3      H2            -20.9926487078      -22.1926363765        1.3578158414  W2        3437            0.0000000000
     10312      3438  TIP3      OH2           -18.4520887078      -27.5140563765       -8.8314841586  W2        3438            0.0000000000
     10313      3438  TIP3      H1            -18.9739787078      -27.1576463765       -9.5503941586  W2        3438            0.0000000000
     10314      3438  TIP3      H2            -18.4851687078      -26.8392763765       -8.1533941586  W2        3438            0.0000000000
     10315      3439  TIP3      OH2           -20.1031887078      -30.2744963765      -10.2807741586  W2        3439            0.0000000000
     10316      3439  TIP3      H1            -20.0067487078      -29.6077963765      -10.9608041586  W2        3439            0.0000000000
     10317      3439  TIP3      H2            -20.2432287078      -31.0898663765      -10.7622241586  W2        3439            0.0000000000
     10318      3440  TIP3      OH2           -20.9337187078      -28.8942563765       -4.6597441586  W2        3440            0.0000000000
     10319      3440  TIP3      H1            -21.0838387078      -29.8393963765       -4.6799641586  W2        3440            0.0000000000
     10320      3440  TIP3      H2            -21.2872687078      -28.6131163765       -3.8158341586  W2        3440            0.0000000000
     10321      3441  TIP3      OH2           -35.8984787078      -26.8160363765       -0.6493641586  W2        3441            0.0000000000
     10322      3441  TIP3      H1            -35.7141887078      -26.8978663765       -1.5850741586  W2        3441            0.0000000000
     10323      3441  TIP3      H2            -35.0491887078      -26.9403363765       -0.2257241586  W2        3441            0.0000000000
     10324      3442  TIP3      OH2           -20.0774287078      -26.9239263765        4.9790858414  W2        3442            0.0000000000
     10325      3442  TIP3      H1            -19.4946987078      -27.6586963765        5.1708058414  W2        3442            0.0000000000
     10326      3442  TIP3      H2            -19.5134987078      -26.1518963765        5.0256658414  W2        3442            0.0000000000
     10327      3443  TIP3      OH2           -18.5807187078      -29.0213463765        5.6636258414  W2        3443            0.0000000000
     10328      3443  TIP3      H1            -19.4440487078      -29.4001363765        5.4980958414  W2        3443            0.0000000000
     10329      3443  TIP3      H2            -17.9763487078      -29.7598663765        5.5892058414  W2        3443            0.0000000000
     10330      3444  TIP3      OH2           -20.8558087078      -32.8665163765      -11.1632241586  W2        3444            0.0000000000
     10331      3444  TIP3      H1            -20.2452287078      -33.2378363765      -10.5264041586  W2        3444            0.0000000000
     10332      3444  TIP3      H2            -21.6926587078      -33.2878263765      -10.9672241586  W2        3444            0.0000000000
     10333      3445  TIP3      OH2           -21.2232387078      -31.3116763765       -6.1972341586  W2        3445            0.0000000000
     10334      3445  TIP3      H1            -20.9435287078      -32.2186363765       -6.0730641586  W2        3445            0.0000000000
     10335      3445  TIP3      H2            -20.4640687078      -30.8775263765       -6.5863141586  W2        3445            0.0000000000
     10336      3446  TIP3      OH2           -20.6114087078      -30.7299363765       -0.7613441586  W2        3446            0.0000000000
     10337      3446  TIP3      H1            -19.6786087078      -30.5179463765       -0.7957441586  W2        3446            0.0000000000
     10338      3446  TIP3      H2            -20.8466587078      -30.6287263765        0.1609558414  W2        3446            0.0000000000
     10339      3447  TIP3      OH2           -20.5822187078      -29.9934063765        2.0145958414  W2        3447            0.0000000000
     10340      3447  TIP3      H1            -21.4250887078      -29.7253663765        2.3805758414  W2        3447            0.0000000000
     10341      3447  TIP3      H2            -20.1397887078      -29.1712163765        1.8037058414  W2        3447            0.0000000000
     10342      3448  TIP3      OH2           -36.3009987078      -31.5455363765        5.4915158414  W2        3448            0.0000000000
     10343      3448  TIP3      H1            -35.3815087078      -31.6677063765        5.7278258414  W2        3448            0.0000000000
     10344      3448  TIP3      H2            -36.7505487078      -32.2955663765        5.8808658414  W2        3448            0.0000000000
     10345      3449  TIP3      OH2           -18.2990587078      -36.0133863765        7.3680958414  W2        3449            0.0000000000
     10346      3449  TIP3      H1            -17.9493587078      -36.6670363765        6.7625658414  W2        3449            0.0000000000
     10347      3449  TIP3      H2            -18.1521087078      -35.1759763765        6.9283558414  W2        3449            0.0000000000
     10348      3450  TIP3      OH2           -20.6097587078      -34.0487463765       -6.1490341586  W2        3450            0.0000000000
     10349      3450  TIP3      H1            -20.4272587078      -34.4975963765       -5.3235341586  W2        3450            0.0000000000
     10350      3450  TIP3      H2            -21.2094687078      -34.6333063765       -6.6125741586  W2        3450            0.0000000000
     10351      3451  TIP3      OH2           -35.0797487078      -33.2333763765       -1.6171941586  W2        3451            0.0000000000
     10352      3451  TIP3      H1            -34.6345887078      -34.0251263765       -1.3152241586  W2        3451            0.0000000000
     10353      3451  TIP3      H2            -34.6134487078      -32.5168563765       -1.1866341586  W2        3451            0.0000000000
     10354      3452  TIP3      OH2           -36.7757187078      -30.2340763765       -0.5481741586  W2        3452            0.0000000000
     10355      3452  TIP3      H1            -36.2837387078      -30.4550263765       -1.3389741586  W2        3452            0.0000000000
     10356      3452  TIP3      H2            -36.4136287078      -29.3937363765       -0.2672241586  W2        3452            0.0000000000
     10357      3453  TIP3      OH2           -18.7793387078      -33.9039263765        5.7172258414  W2        3453            0.0000000000
     10358      3453  TIP3      H1            -19.6967687078      -33.6332163765        5.6815758414  W2        3453            0.0000000000
     10359      3453  TIP3      H2            -18.6563987078      -34.4390863765        4.9331958414  W2        3453            0.0000000000
     10360      3454  TIP3      OH2           -18.7431387078      -33.9809363765       -9.6210041586  W2        3454            0.0000000000
     10361      3454  TIP3      H1            -18.3308787078      -34.7023663765      -10.0962041586  W2        3454            0.0000000000
     10362      3454  TIP3      H2            -18.0614887078      -33.3114763765       -9.5625741586  W2        3454            0.0000000000
     10363      3455  TIP3      OH2           -36.4620687078      -33.9761663765       -6.4939341586  W2        3455            0.0000000000
     10364      3455  TIP3      H1            -37.3872287078      -33.7675063765       -6.6233841586  W2        3455            0.0000000000
     10365      3455  TIP3      H2            -36.0080787078      -33.4920863765       -7.1837041586  W2        3455            0.0000000000
     10366      3456  TIP3      OH2           -21.6913487078      -18.9919963765       -4.5481941586  W2        3456            0.0000000000
     10367      3456  TIP3      H1            -21.0390587078      -19.3397863765       -5.1562841586  W2        3456            0.0000000000
     10368      3456  TIP3      H2            -21.1809687078      -18.5036763765       -3.9022241586  W2        3456            0.0000000000
     10369      3457  TIP3      OH2           -36.4985287078      -35.2382663765        1.8503158414  W2        3457            0.0000000000
     10370      3457  TIP3      H1            -37.1634787078      -35.4842363765        2.4934058414  W2        3457            0.0000000000
     10371      3457  TIP3      H2            -36.9413987078      -34.6162263765        1.2731158414  W2        3457            0.0000000000
     10372      3458  TIP3      OH2           -34.3065987078      -22.0628563765        5.9948958414  W2        3458            0.0000000000
     10373      3458  TIP3      H1            -35.1273487078      -21.8882063765        5.5343658414  W2        3458            0.0000000000
     10374      3458  TIP3      H2            -34.5588187078      -22.1363863765        6.9153358414  W2        3458            0.0000000000
     10375      3459  TIP3      OH2           -31.3523087078      -21.0887363765        2.2532958414  W2        3459            0.0000000000
     10376      3459  TIP3      H1            -31.7771987078      -20.2788863765        1.9707558414  W2        3459            0.0000000000
     10377      3459  TIP3      H2            -30.4480287078      -21.0033263765        1.9512758414  W2        3459            0.0000000000
     10378      3460  TIP3      OH2           -27.0411687078      -19.6897363765        5.2126658414  W2        3460            0.0000000000
     10379      3460  TIP3      H1            -26.8564187078      -20.0231263765        6.0906958414  W2        3460            0.0000000000
     10380      3460  TIP3      H2            -26.1947187078      -19.3798763765        4.8905858414  W2        3460            0.0000000000
     10381      3461  TIP3      OH2           -24.6961287078      -18.4038463765        4.4568058414  W2        3461            0.0000000000
     10382      3461  TIP3      H1            -24.0192387078      -19.0366163765        4.2167258414  W2        3461            0.0000000000
     10383      3461  TIP3      H2            -24.3742487078      -18.0027963765        5.2641358414  W2        3461            0.0000000000
     10384      3462  TIP3      OH2           -19.7787487078      -35.8142963765        3.5363058414  W2        3462            0.0000000000
     10385      3462  TIP3      H1            -20.5913987078      -35.4892663765        3.1487758414  W2        3462            0.0000000000
     10386      3462  TIP3      H2            -19.5458987078      -36.5744463765        3.0032158414  W2        3462            0.0000000000
     10387      3463  TIP3      OH2           -33.9506387078      -17.8323463765        2.3008258414  W2        3463            0.0000000000
     10388      3463  TIP3      H1            -34.6709987078      -17.3922463765        1.8495958414  W2        3463            0.0000000000
     10389      3463  TIP3      H2            -34.3162387078      -18.0828763765        3.1492258414  W2        3463            0.0000000000
     10390      3464  TIP3      OH2           -31.4833787078      -18.2319563765        1.3305458414  W2        3464            0.0000000000
     10391      3464  TIP3      H1            -32.3481587078      -18.1601063765        1.7345558414  W2        3464            0.0000000000
     10392      3464  TIP3      H2            -31.5384787078      -17.6852263765        0.5467958414  W2        3464            0.0000000000
     10393      3465  TIP3      OH2           -26.7728187078      -18.3440663765        0.5061458414  W2        3465            0.0000000000
     10394      3465  TIP3      H1            -27.2294187078      -17.8150963765       -0.1480141586  W2        3465            0.0000000000
     10395      3465  TIP3      H2            -26.6100187078      -17.7409263765        1.2313758414  W2        3465            0.0000000000
     10396      3466  TIP3      OH2           -24.4451887078      -19.4661063765        1.4511758414  W2        3466            0.0000000000
     10397      3466  TIP3      H1            -25.3498187078      -19.3010863765        1.1853858414  W2        3466            0.0000000000
     10398      3466  TIP3      H2            -24.0163287078      -18.6128863765        1.3855158414  W2        3466            0.0000000000
     10399      3467  TIP3      OH2           -21.8409987078      -17.8961963765        1.7459558414  W2        3467            0.0000000000
     10400      3467  TIP3      H1            -22.0227987078      -16.9803063765        1.5354458414  W2        3467            0.0000000000
     10401      3467  TIP3      H2            -21.6642187078      -18.3064863765        0.8994158414  W2        3467            0.0000000000
     10402      3468  TIP3      OH2           -34.5358287078      -19.2090963765       -0.7889941586  W2        3468            0.0000000000
     10403      3468  TIP3      H1            -34.5542287078      -19.6345863765        0.0682358414  W2        3468            0.0000000000
     10404      3468  TIP3      H2            -33.7310387078      -19.5275963765       -1.1977741586  W2        3468            0.0000000000
     10405      3469  TIP3      OH2           -32.3945187078      -20.4992263765       -2.1340041586  W2        3469            0.0000000000
     10406      3469  TIP3      H1            -32.6134487078      -21.4154863765       -1.9644041586  W2        3469            0.0000000000
     10407      3469  TIP3      H2            -31.5702987078      -20.3591863765       -1.6678641586  W2        3469            0.0000000000
     10408      3470  TIP3      OH2           -29.8572687078      -20.0292963765       -1.2852041586  W2        3470            0.0000000000
     10409      3470  TIP3      H1            -29.6446987078      -20.9173963765       -1.5721141586  W2        3470            0.0000000000
     10410      3470  TIP3      H2            -29.7927587078      -20.0635263765       -0.3308041586  W2        3470            0.0000000000
     10411      3471  TIP3      OH2           -26.3488987078      -34.3652363765       -2.1408741586  W2        3471            0.0000000000
     10412      3471  TIP3      H1            -27.0232187078      -34.9946763765       -1.8852941586  W2        3471            0.0000000000
     10413      3471  TIP3      H2            -25.7849787078      -34.8493463765       -2.7440841586  W2        3471            0.0000000000
     10414      3472  TIP3      OH2           -21.2061787078      -36.2578363765       -2.0281641586  W2        3472            0.0000000000
     10415      3472  TIP3      H1            -20.6024187078      -35.7102963765       -2.5300641586  W2        3472            0.0000000000
     10416      3472  TIP3      H2            -22.0759787078      -35.9387963765       -2.2687541586  W2        3472            0.0000000000
     10417      3473  TIP3      OH2           -19.4791387078      -35.1189663765       -3.6950741586  W2        3473            0.0000000000
     10418      3473  TIP3      H1            -18.8673887078      -35.6333963765       -4.2217141586  W2        3473            0.0000000000
     10419      3473  TIP3      H2            -19.0967987078      -34.2417563765       -3.6716341586  W2        3473            0.0000000000
     10420      3474  TIP3      OH2           -34.0221487078      -35.7312063765       -4.3188841586  W2        3474            0.0000000000
     10421      3474  TIP3      H1            -34.7991687078      -35.9657163765       -4.8262941586  W2        3474            0.0000000000
     10422      3474  TIP3      H2            -33.4917887078      -36.5279963765       -4.3100841586  W2        3474            0.0000000000
     10423      3475  TIP3      OH2           -35.1858087078      -35.9333963765       -8.5152741586  W2        3475            0.0000000000
     10424      3475  TIP3      H1            -34.7467387078      -35.3223463765       -9.1069241586  W2        3475            0.0000000000
     10425      3475  TIP3      H2            -35.8195687078      -35.3949863765       -8.0412741586  W2        3475            0.0000000000
     10426      3476  TIP3      OH2           -29.4428887078      -35.8044963765       -4.5055741586  W2        3476            0.0000000000
     10427      3476  TIP3      H1            -28.5685487078      -35.4160663765       -4.5351441586  W2        3476            0.0000000000
     10428      3476  TIP3      H2            -29.5788087078      -36.0197163765       -3.5828541586  W2        3476            0.0000000000
     10429      3477  TIP3      OH2           -23.8860487078      -35.7745163765       -2.8564041586  W2        3477            0.0000000000
     10430      3477  TIP3      H1            -23.8098887078      -35.6793563765       -3.8058041586  W2        3477            0.0000000000
     10431      3477  TIP3      H2            -24.1611287078      -36.6822263765       -2.7274941586  W2        3477            0.0000000000
     10432      3478  TIP3      OH2           -22.5327887078      -35.7487363765       -7.1639041586  W2        3478            0.0000000000
     10433      3478  TIP3      H1            -23.2356787078      -35.1338163765       -7.3737641586  W2        3478            0.0000000000
     10434      3478  TIP3      H2            -22.9776487078      -36.5860663765       -7.0328141586  W2        3478            0.0000000000
     10435      3479  TIP3      OH2           -35.2848587078      -19.9851763765       -7.6177641586  W2        3479            0.0000000000
     10436      3479  TIP3      H1            -35.9698687078      -20.0232863765       -8.2852541586  W2        3479            0.0000000000
     10437      3479  TIP3      H2            -35.2811387078      -19.0724163765       -7.3295541586  W2        3479            0.0000000000
     10438      3480  TIP3      OH2           -33.3248987078      -34.0172463765      -10.0728641586  W2        3480            0.0000000000
     10439      3480  TIP3      H1            -32.8335587078      -34.6470063765      -10.6003141586  W2        3480            0.0000000000
     10440      3480  TIP3      H2            -32.7012687078      -33.7213063765       -9.4097441586  W2        3480            0.0000000000
     10441      3481  TIP3      OH2           -28.2988887078      -33.7240963765       -7.6158141586  W2        3481            0.0000000000
     10442      3481  TIP3      H1            -28.1207587078      -34.3707763765       -6.9329541586  W2        3481            0.0000000000
     10443      3481  TIP3      H2            -28.3522687078      -32.8903263765       -7.1487041586  W2        3481            0.0000000000
     10444      3482  TIP3      OH2           -26.4205087078      -18.7756863765       -9.2201441586  W2        3482            0.0000000000
     10445      3482  TIP3      H1            -25.5544887078      -18.4089463765       -9.3983241586  W2        3482            0.0000000000
     10446      3482  TIP3      H2            -26.6672287078      -19.2148863765      -10.0340641586  W2        3482            0.0000000000
     10447      3483  TIP3      OH2           -19.7115487078      -19.2126563765       -6.5410341586  W2        3483            0.0000000000
     10448      3483  TIP3      H1            -19.9058387078      -19.9604463765       -7.1060741586  W2        3483            0.0000000000
     10449      3483  TIP3      H2            -19.7505387078      -18.4546463765       -7.1242441586  W2        3483            0.0000000000
     10450      3484  TIP3      OH2           -34.0643487078      -35.2170163765        5.1987358414  W2        3484            0.0000000000
     10451      3484  TIP3      H1            -34.4305287078      -35.9827563765        5.6412058414  W2        3484            0.0000000000
     10452      3484  TIP3      H2            -33.1514987078      -35.1879963765        5.4852458414  W2        3484            0.0000000000
     10453      3485  TIP3      OH2           -32.0912687078      -35.8665763765        6.7344458414  W2        3485            0.0000000000
     10454      3485  TIP3      H1            -31.1929087078      -36.1405563765        6.5497858414  W2        3485            0.0000000000
     10455      3485  TIP3      H2            -32.4779587078      -36.6089763765        7.1987058414  W2        3485            0.0000000000
     10456      3486  TIP3      OH2           -33.4667387078      -19.0650963765      -10.5925541586  W2        3486            0.0000000000
     10457      3486  TIP3      H1            -33.7342787078      -18.7788063765       -9.7192441586  W2        3486            0.0000000000
     10458      3486  TIP3      H2            -32.6954787078      -19.6111763765      -10.4403041586  W2        3486            0.0000000000
     10459      3487  TIP3      OH2           -23.6700387078      -36.5340463765        6.9167258414  W2        3487            0.0000000000
     10460      3487  TIP3      H1            -23.5933187078      -36.9599763765        7.7704958414  W2        3487            0.0000000000
     10461      3487  TIP3      H2            -22.7763787078      -36.5205763765        6.5740758414  W2        3487            0.0000000000
     10462      3488  TIP3      OH2           -20.4939287078      -20.4614163765        5.6091458414  W2        3488            0.0000000000
     10463      3488  TIP3      H1            -21.2757387078      -20.6476163765        5.0892058414  W2        3488            0.0000000000
     10464      3488  TIP3      H2            -20.5659387078      -19.5319863765        5.8263958414  W2        3488            0.0000000000
     10465      3489  TIP3      OH2            -6.0878887078      -26.5749763765       -4.3601341586  W2        3489            0.0000000000
     10466      3489  TIP3      H1             -5.9987787078      -25.6311563765       -4.4924241586  W2        3489            0.0000000000
     10467      3489  TIP3      H2             -6.7261287078      -26.8503363765       -5.0181941586  W2        3489            0.0000000000
     10468      3490  TIP3      OH2            -7.1547587078      -27.3199063765       -0.9413141586  W2        3490            0.0000000000
     10469      3490  TIP3      H1             -7.1930087078      -27.9662763765       -0.2363541586  W2        3490            0.0000000000
     10470      3490  TIP3      H2             -7.4771087078      -27.7864663765       -1.7124441586  W2        3490            0.0000000000
     10471      3491  TIP3      OH2           -14.7862587078      -27.7056963765        0.6516758414  W2        3491            0.0000000000
     10472      3491  TIP3      H1            -14.7450487078      -28.3313663765        1.3749158414  W2        3491            0.0000000000
     10473      3491  TIP3      H2            -14.0834887078      -27.0818363765        0.8337158414  W2        3491            0.0000000000
     10474      3492  TIP3      OH2            -3.4487387078      -24.3808663765       -2.6398041586  W2        3492            0.0000000000
     10475      3492  TIP3      H1             -3.8894687078      -25.1012663765       -2.1892441586  W2        3492            0.0000000000
     10476      3492  TIP3      H2             -3.4617687078      -23.6601463765       -2.0100341586  W2        3492            0.0000000000
     10477      3493  TIP3      OH2           -13.8629487078      -23.2558063765       -0.8134141586  W2        3493            0.0000000000
     10478      3493  TIP3      H1            -14.2324287078      -24.0577563765       -1.1829841586  W2        3493            0.0000000000
     10479      3493  TIP3      H2            -12.9218387078      -23.4243163765       -0.7670741586  W2        3493            0.0000000000
     10480      3494  TIP3      OH2           -17.2528987078      -29.5955463765       -5.4205341586  W2        3494            0.0000000000
     10481      3494  TIP3      H1            -17.7005587078      -28.7496763765       -5.4388841586  W2        3494            0.0000000000
     10482      3494  TIP3      H2            -17.8137787078      -30.1751263765       -5.9360241586  W2        3494            0.0000000000
     10483      3495  TIP3      OH2           -16.5422887078      -27.4335863765       -3.2947341586  W2        3495            0.0000000000
     10484      3495  TIP3      H1            -16.3289387078      -28.2034263765       -2.7674341586  W2        3495            0.0000000000
     10485      3495  TIP3      H2            -15.8045287078      -27.3439163765       -3.8979741586  W2        3495            0.0000000000
     10486      3496  TIP3      OH2            -6.3371887078      -19.2766963765       -2.4277641586  W2        3496            0.0000000000
     10487      3496  TIP3      H1             -5.7175487078      -19.9532263765       -2.7008441586  W2        3496            0.0000000000
     10488      3496  TIP3      H2             -6.5454487078      -19.4946163765       -1.5192741586  W2        3496            0.0000000000
     10489      3497  TIP3      OH2            -8.7653187078      -24.8877663765       -0.5352141586  W2        3497            0.0000000000
     10490      3497  TIP3      H1             -8.4615287078      -25.5736263765       -1.1298041586  W2        3497            0.0000000000
     10491      3497  TIP3      H2             -8.0439187078      -24.7688963765        0.0825858414  W2        3497            0.0000000000
     10492      3498  TIP3      OH2            -0.1023387078      -33.2862363765        0.3254058414  W2        3498            0.0000000000
     10493      3498  TIP3      H1             -0.0531187078      -32.6761163765        1.0613158414  W2        3498            0.0000000000
     10494      3498  TIP3      H2              0.3231712922      -32.8251463765       -0.3974841586  W2        3498            0.0000000000
     10495      3499  TIP3      OH2            -5.6246187078      -30.4935263765       -0.2077341586  W2        3499            0.0000000000
     10496      3499  TIP3      H1             -5.4820287078      -31.4398263765       -0.1875741586  W2        3499            0.0000000000
     10497      3499  TIP3      H2             -5.7307187078      -30.2865463765       -1.1362441586  W2        3499            0.0000000000
     10498      3500  TIP3      OH2           -12.4697887078      -32.3918863765       -2.9352541586  W2        3500            0.0000000000
     10499      3500  TIP3      H1            -12.4266787078      -31.5320363765       -3.3536241586  W2        3500            0.0000000000
     10500      3500  TIP3      H2            -12.9273787078      -32.9444163765       -3.5689341586  W2        3500            0.0000000000
     10501      3501  TIP3      OH2            -4.7475187078      -32.2613263765       -4.5344241586  W2        3501            0.0000000000
     10502      3501  TIP3      H1             -4.1010887078      -32.5900063765       -3.9096641586  W2        3501            0.0000000000
     10503      3501  TIP3      H2             -4.2375787078      -31.7434263765       -5.1572841586  W2        3501            0.0000000000
     10504      3502  TIP3      OH2           -15.8496387078      -29.9953063765       -2.1731141586  W2        3502            0.0000000000
     10505      3502  TIP3      H1            -15.1959787078      -30.5451363765       -1.7411041586  W2        3502            0.0000000000
     10506      3502  TIP3      H2            -15.8257087078      -30.2694063765       -3.0899141586  W2        3502            0.0000000000
     10507      3503  TIP3      OH2           -10.6931887078      -28.4451763765       -2.9579641586  W2        3503            0.0000000000
     10508      3503  TIP3      H1            -10.0770887078      -28.9716363765       -2.4485641586  W2        3503            0.0000000000
     10509      3503  TIP3      H2            -11.2793087078      -29.0853063765       -3.3616041586  W2        3503            0.0000000000
     10510      3504  TIP3      OH2             0.2891212922      -31.8083163765        2.5613858414  W2        3504            0.0000000000
     10511      3504  TIP3      H1             -0.3994187078      -31.1502463765        2.4660458414  W2        3504            0.0000000000
     10512      3504  TIP3      H2              0.3045812922      -32.0055263765        3.4979258414  W2        3504            0.0000000000
     10513      3505  TIP3      OH2           -13.6595987078      -33.4740463765        1.1388258414  W2        3505            0.0000000000
     10514      3505  TIP3      H1            -13.8784287078      -32.9439863765        0.3724258414  W2        3505            0.0000000000
     10515      3505  TIP3      H2            -14.3275087078      -33.2474963765        1.7859658414  W2        3505            0.0000000000
     10516      3506  TIP3      OH2            -6.2906187078      -23.9739363765       -5.3172641586  W2        3506            0.0000000000
     10517      3506  TIP3      H1             -6.5861087078      -24.2967063765       -6.1685741586  W2        3506            0.0000000000
     10518      3506  TIP3      H2             -6.6148387078      -23.0742663765       -5.2760041586  W2        3506            0.0000000000
     10519      3507  TIP3      OH2           -11.0904587078      -25.7984763765        1.4261958414  W2        3507            0.0000000000
     10520      3507  TIP3      H1            -11.8305487078      -25.2003263765        1.5297158414  W2        3507            0.0000000000
     10521      3507  TIP3      H2            -10.3765087078      -25.2445163765        1.1105558414  W2        3507            0.0000000000
     10522      3508  TIP3      OH2            -2.9836787078      -32.9703963765       -2.5538341586  W2        3508            0.0000000000
     10523      3508  TIP3      H1             -3.1988787078      -33.7360563765       -2.0212341586  W2        3508            0.0000000000
     10524      3508  TIP3      H2             -2.3279387078      -32.4979363765       -2.0409841586  W2        3508            0.0000000000
     10525      3509  TIP3      OH2           -14.0658687078      -31.5818663765       -0.9089541586  W2        3509            0.0000000000
     10526      3509  TIP3      H1            -13.4522387078      -30.9491063765       -0.5357141586  W2        3509            0.0000000000
     10527      3509  TIP3      H2            -13.5537987078      -32.0543663765       -1.5652641586  W2        3509            0.0000000000
     10528      3510  TIP3      OH2           -12.6830287078      -23.8341763765        2.2133458414  W2        3510            0.0000000000
     10529      3510  TIP3      H1            -12.6882687078      -22.9548263765        1.8352758414  W2        3510            0.0000000000
     10530      3510  TIP3      H2            -13.5366187078      -23.9177663765        2.6383358414  W2        3510            0.0000000000
     10531      3511  TIP3      OH2           -16.5619387078      -24.1633863765       -7.0047241586  W2        3511            0.0000000000
     10532      3511  TIP3      H1            -16.8338487078      -23.9342863765       -7.8934341586  W2        3511            0.0000000000
     10533      3511  TIP3      H2            -16.5163687078      -23.3255063765       -6.5441941586  W2        3511            0.0000000000
     10534      3512  TIP3      OH2            -2.9369687078      -22.5417963765       -0.2918741586  W2        3512            0.0000000000
     10535      3512  TIP3      H1             -3.8785987078      -22.4834063765       -0.1301841586  W2        3512            0.0000000000
     10536      3512  TIP3      H2             -2.6603587078      -21.6357463765       -0.4289041586  W2        3512            0.0000000000
     10537      3513  TIP3      OH2            -2.6362687078      -34.2552663765        1.1255158414  W2        3513            0.0000000000
     10538      3513  TIP3      H1             -3.3723487078      -33.6445563765        1.0876458414  W2        3513            0.0000000000
     10539      3513  TIP3      H2             -1.9528687078      -33.8403663765        0.5991558414  W2        3513            0.0000000000
     10540      3514  TIP3      OH2            -9.6331287078      -36.1685363765       -1.4086841586  W2        3514            0.0000000000
     10541      3514  TIP3      H1             -9.7507087078      -37.1169363765       -1.4628541586  W2        3514            0.0000000000
     10542      3514  TIP3      H2            -10.4881187078      -35.8359263765       -1.1355741586  W2        3514            0.0000000000
     10543      3515  TIP3      OH2            -4.6848487078      -20.7604463765       -3.6667141586  W2        3515            0.0000000000
     10544      3515  TIP3      H1             -4.2596187078      -21.4676563765       -4.1517541586  W2        3515            0.0000000000
     10545      3515  TIP3      H2             -4.3678487078      -19.9591763765       -4.0834941586  W2        3515            0.0000000000
     10546      3516  TIP3      OH2            -3.5251987078      -22.8595963765       -5.1580541586  W2        3516            0.0000000000
     10547      3516  TIP3      H1             -3.7827187078      -23.5495863765       -5.7694641586  W2        3516            0.0000000000
     10548      3516  TIP3      H2             -3.4541187078      -23.3024763765       -4.3124641586  W2        3516            0.0000000000
     10549      3517  TIP3      OH2            -1.8391787078      -24.2929263765        3.3192958414  W2        3517            0.0000000000
     10550      3517  TIP3      H1             -1.6995487078      -24.8846763765        2.5799958414  W2        3517            0.0000000000
     10551      3517  TIP3      H2             -1.6718987078      -23.4203363765        2.9631758414  W2        3517            0.0000000000
     10552      3518  TIP3      OH2            -7.3666387078      -27.3309763765       -6.9081041586  W2        3518            0.0000000000
     10553      3518  TIP3      H1             -8.0780887078      -26.7960063765       -7.2600541586  W2        3518            0.0000000000
     10554      3518  TIP3      H2             -6.6756787078      -27.2757663765       -7.5682141586  W2        3518            0.0000000000
     10555      3519  TIP3      OH2            -7.3127187078      -28.8735463765       -9.8696041586  W2        3519            0.0000000000
     10556      3519  TIP3      H1             -6.6117287078      -28.8508563765       -9.2182041586  W2        3519            0.0000000000
     10557      3519  TIP3      H2             -7.0104287078      -29.5015763765      -10.5256741586  W2        3519            0.0000000000
     10558      3520  TIP3      OH2             0.0027512922      -27.9531263765        1.3853358414  W2        3520            0.0000000000
     10559      3520  TIP3      H1             -0.6498387078      -27.2585663765        1.4744258414  W2        3520            0.0000000000
     10560      3520  TIP3      H2              0.4677812922      -27.7430363765        0.5754958414  W2        3520            0.0000000000
     10561      3521  TIP3      OH2            -3.9608687078      -27.1216463765       -5.9565141586  W2        3521            0.0000000000
     10562      3521  TIP3      H1             -4.6927687078      -26.8932763765       -5.3834541586  W2        3521            0.0000000000
     10563      3521  TIP3      H2             -3.5136487078      -27.8353763765       -5.5017641586  W2        3521            0.0000000000
     10564      3522  TIP3      OH2            -4.0635187078      -28.9473863765        3.1111858414  W2        3522            0.0000000000
     10565      3522  TIP3      H1             -3.9836087078      -28.1839463765        3.6830358414  W2        3522            0.0000000000
     10566      3522  TIP3      H2             -4.6647487078      -28.6681463765        2.4206958414  W2        3522            0.0000000000
     10567      3523  TIP3      OH2           -12.3154987078      -26.4910263765       -4.0740141586  W2        3523            0.0000000000
     10568      3523  TIP3      H1            -12.6459787078      -26.8616863765       -4.8923141586  W2        3523            0.0000000000
     10569      3523  TIP3      H2            -11.7270887078      -27.1616263765       -3.7271841586  W2        3523            0.0000000000
     10570      3524  TIP3      OH2           -10.9487487078      -23.0629663765       -1.3927941586  W2        3524            0.0000000000
     10571      3524  TIP3      H1            -11.0436187078      -23.6416563765       -2.1493341586  W2        3524            0.0000000000
     10572      3524  TIP3      H2            -10.2193887078      -23.4343963765       -0.8965141586  W2        3524            0.0000000000
     10573      3525  TIP3      OH2           -11.9489487078      -27.7224663765       -0.4405141586  W2        3525            0.0000000000
     10574      3525  TIP3      H1            -11.3836987078      -27.6010463765       -1.2033941586  W2        3525            0.0000000000
     10575      3525  TIP3      H2            -11.6300587078      -27.0849663765        0.1983358414  W2        3525            0.0000000000
     10576      3526  TIP3      OH2            -5.6397287078      -22.2192763765        0.2935358414  W2        3526            0.0000000000
     10577      3526  TIP3      H1             -5.8800687078      -21.5569663765        0.9414558414  W2        3526            0.0000000000
     10578      3526  TIP3      H2             -5.8379087078      -23.0537563765        0.7184958414  W2        3526            0.0000000000
     10579      3527  TIP3      OH2           -11.0688787078      -23.3231963765        4.2766758414  W2        3527            0.0000000000
     10580      3527  TIP3      H1            -11.3801287078      -22.5408763765        4.7319958414  W2        3527            0.0000000000
     10581      3527  TIP3      H2            -11.7188587078      -23.4762863765        3.5908758414  W2        3527            0.0000000000
     10582      3528  TIP3      OH2            -5.0899187078      -27.9593563765       -8.2713941586  W2        3528            0.0000000000
     10583      3528  TIP3      H1             -4.5103687078      -27.8093263765       -7.5245041586  W2        3528            0.0000000000
     10584      3528  TIP3      H2             -4.6759187078      -27.4886163765       -8.9947541586  W2        3528            0.0000000000
     10585      3529  TIP3      OH2           -14.1488887078      -27.1250863765        3.5052458414  W2        3529            0.0000000000
     10586      3529  TIP3      H1            -14.0785687078      -26.4744063765        4.2037458414  W2        3529            0.0000000000
     10587      3529  TIP3      H2            -15.0396687078      -27.0223363765        3.1703358414  W2        3529            0.0000000000
     10588      3530  TIP3      OH2            -7.3634287078      -21.2225063765       -4.8360841586  W2        3530            0.0000000000
     10589      3530  TIP3      H1             -6.8896687078      -20.9268763765       -4.0586641586  W2        3530            0.0000000000
     10590      3530  TIP3      H2             -7.9264987078      -20.4843463765       -5.0691241586  W2        3530            0.0000000000
     10591      3531  TIP3      OH2           -12.8292887078      -21.2516963765        5.0400558414  W2        3531            0.0000000000
     10592      3531  TIP3      H1            -12.8217587078      -21.3877263765        4.0926058414  W2        3531            0.0000000000
     10593      3531  TIP3      H2            -13.7452487078      -21.3688863765        5.2920558414  W2        3531            0.0000000000
     10594      3532  TIP3      OH2            -1.3910787078      -36.2093163765       -8.4584241586  W2        3532            0.0000000000
     10595      3532  TIP3      H1             -2.2910087078      -36.0704163765       -8.1633641586  W2        3532            0.0000000000
     10596      3532  TIP3      H2             -1.1392387078      -35.3778563765       -8.8602541586  W2        3532            0.0000000000
     10597      3533  TIP3      OH2           -13.3252287078      -27.4215963765       -6.4847341586  W2        3533            0.0000000000
     10598      3533  TIP3      H1            -13.6170987078      -26.6534263765       -6.9756041586  W2        3533            0.0000000000
     10599      3533  TIP3      H2            -13.9997087078      -28.0809763765       -6.6475941586  W2        3533            0.0000000000
     10600      3534  TIP3      OH2            -0.2019387078      -21.8430763765      -10.0820341586  W2        3534            0.0000000000
     10601      3534  TIP3      H1             -0.1285887078      -20.9040563765       -9.9115041586  W2        3534            0.0000000000
     10602      3534  TIP3      H2              0.7035712922      -22.1482163765      -10.1383041586  W2        3534            0.0000000000
     10603      3535  TIP3      OH2           -17.2322187078      -25.0586763765        2.3302458414  W2        3535            0.0000000000
     10604      3535  TIP3      H1            -17.7333787078      -25.0867363765        1.5152158414  W2        3535            0.0000000000
     10605      3535  TIP3      H2            -17.2268487078      -25.9643563765        2.6399758414  W2        3535            0.0000000000
     10606      3536  TIP3      OH2           -17.4819487078      -22.2782963765       -0.7857341586  W2        3536            0.0000000000
     10607      3536  TIP3      H1            -16.5358887078      -22.4225963765       -0.8047841586  W2        3536            0.0000000000
     10608      3536  TIP3      H2            -17.5943187078      -21.4940163765       -0.2486141586  W2        3536            0.0000000000
     10609      3537  TIP3      OH2             0.7159012922      -21.6123263765        4.8966358414  W2        3537            0.0000000000
     10610      3537  TIP3      H1              0.6665812922      -22.5675163765        4.8593958414  W2        3537            0.0000000000
     10611      3537  TIP3      H2             -0.1108687078      -21.3447963765        5.2980158414  W2        3537            0.0000000000
     10612      3538  TIP3      OH2            -8.3056987078      -22.0384063765        3.7727758414  W2        3538            0.0000000000
     10613      3538  TIP3      H1             -8.2182387078      -21.2119463765        4.2476858414  W2        3538            0.0000000000
     10614      3538  TIP3      H2             -9.1691887078      -22.3680263765        4.0217058414  W2        3538            0.0000000000
     10615      3539  TIP3      OH2            -7.8911187078      -18.2660363765       -6.4211641586  W2        3539            0.0000000000
     10616      3539  TIP3      H1             -7.9665187078      -18.3873163765       -7.3676441586  W2        3539            0.0000000000
     10617      3539  TIP3      H2             -7.8582487078      -17.3167663765       -6.3027041586  W2        3539            0.0000000000
     10618      3540  TIP3      OH2           -14.2377387078      -19.4773363765       -4.6402641586  W2        3540            0.0000000000
     10619      3540  TIP3      H1            -14.0856987078      -19.8252963765       -3.7616141586  W2        3540            0.0000000000
     10620      3540  TIP3      H2            -15.0886987078      -19.8336063765       -4.8955441586  W2        3540            0.0000000000
     10621      3541  TIP3      OH2            -4.7895187078      -19.1120163765       -9.4189241586  W2        3541            0.0000000000
     10622      3541  TIP3      H1             -4.4146787078      -19.8564063765       -9.8896641586  W2        3541            0.0000000000
     10623      3541  TIP3      H2             -4.7851487078      -19.3819563765       -8.5005941586  W2        3541            0.0000000000
     10624      3542  TIP3      OH2            -5.1207087078      -19.1863063765       -6.6697041586  W2        3542            0.0000000000
     10625      3542  TIP3      H1             -6.0557287078      -19.0861163765       -6.4910041586  W2        3542            0.0000000000
     10626      3542  TIP3      H2             -4.8405187078      -19.8957063765       -6.0913841586  W2        3542            0.0000000000
     10627      3543  TIP3      OH2            -2.1321187078      -30.1190763765        5.3768558414  W2        3543            0.0000000000
     10628      3543  TIP3      H1             -2.5394387078      -29.6385163765        4.6561858414  W2        3543            0.0000000000
     10629      3543  TIP3      H2             -2.0915487078      -31.0244763765        5.0689358414  W2        3543            0.0000000000
     10630      3544  TIP3      OH2           -14.9831687078      -23.7351363765        3.3735258414  W2        3544            0.0000000000
     10631      3544  TIP3      H1            -14.7670387078      -24.0965763765        4.2331058414  W2        3544            0.0000000000
     10632      3544  TIP3      H2            -15.8386987078      -24.1097563765        3.1638758414  W2        3544            0.0000000000
     10633      3545  TIP3      OH2           -12.3643687078      -35.2650863765       -0.6310541586  W2        3545            0.0000000000
     10634      3545  TIP3      H1            -13.2259987078      -35.3522663765       -1.0387641586  W2        3545            0.0000000000
     10635      3545  TIP3      H2            -12.3867987078      -34.4090763765       -0.2032941586  W2        3545            0.0000000000
     10636      3546  TIP3      OH2            -7.7015887078      -35.5430463765        2.7436458414  W2        3546            0.0000000000
     10637      3546  TIP3      H1             -7.2812787078      -35.9583363765        3.4967058414  W2        3546            0.0000000000
     10638      3546  TIP3      H2             -8.6346287078      -35.7217163765        2.8608458414  W2        3546            0.0000000000
     10639      3547  TIP3      OH2            -4.3750987078      -31.7875263765        3.5970958414  W2        3547            0.0000000000
     10640      3547  TIP3      H1             -4.8891487078      -31.9133063765        4.3946958414  W2        3547            0.0000000000
     10641      3547  TIP3      H2             -4.5306287078      -30.8752163765        3.3527158414  W2        3547            0.0000000000
     10642      3548  TIP3      OH2            -3.6126087078      -26.9265263765      -10.6416041586  W2        3548            0.0000000000
     10643      3548  TIP3      H1             -3.5705287078      -27.1491363765      -11.5716041586  W2        3548            0.0000000000
     10644      3548  TIP3      H2             -2.7633987078      -26.5278163765      -10.4516141586  W2        3548            0.0000000000
     10645      3549  TIP3      OH2            -8.0398587078      -33.0507063765       -9.9712741586  W2        3549            0.0000000000
     10646      3549  TIP3      H1             -8.2933787078      -33.0315463765       -9.0484641586  W2        3549            0.0000000000
     10647      3549  TIP3      H2             -8.2966487078      -33.9221663765      -10.2726541586  W2        3549            0.0000000000
     10648      3550  TIP3      OH2           -12.2733587078      -30.2996363765        0.4639658414  W2        3550            0.0000000000
     10649      3550  TIP3      H1            -12.9151487078      -30.3399063765        1.1729758414  W2        3550            0.0000000000
     10650      3550  TIP3      H2            -12.2361587078      -29.3731663765        0.2262658414  W2        3550            0.0000000000
     10651      3551  TIP3      OH2           -12.2764487078      -30.0786263765       -4.6240341586  W2        3551            0.0000000000
     10652      3551  TIP3      H1            -13.1691587078      -30.4190163765       -4.6826541586  W2        3551            0.0000000000
     10653      3551  TIP3      H2            -11.8257887078      -30.4555363765       -5.3797141586  W2        3551            0.0000000000
     10654      3552  TIP3      OH2            -6.7408987078      -29.6625963765       -5.8069541586  W2        3552            0.0000000000
     10655      3552  TIP3      H1             -7.1498687078      -28.8477363765       -6.0984741586  W2        3552            0.0000000000
     10656      3552  TIP3      H2             -6.0202787078      -29.8025863765       -6.4212441586  W2        3552            0.0000000000
     10657      3553  TIP3      OH2            -7.6387387078      -29.4869563765        5.6811158414  W2        3553            0.0000000000
     10658      3553  TIP3      H1             -8.2013587078      -30.1917963765        6.0018958414  W2        3553            0.0000000000
     10659      3553  TIP3      H2             -6.8123987078      -29.6077663765        6.1488758414  W2        3553            0.0000000000
     10660      3554  TIP3      OH2            -5.7361287078      -30.2165563765       -2.9929841586  W2        3554            0.0000000000
     10661      3554  TIP3      H1             -5.9316787078      -29.6108763765       -3.7079241586  W2        3554            0.0000000000
     10662      3554  TIP3      H2             -5.5548687078      -31.0500363765       -3.4273541586  W2        3554            0.0000000000
     10663      3555  TIP3      OH2           -14.5233087078      -29.9792863765        2.3311658414  W2        3555            0.0000000000
     10664      3555  TIP3      H1            -14.5613687078      -29.5791263765        3.1998758414  W2        3555            0.0000000000
     10665      3555  TIP3      H2            -15.0141987078      -30.7960463765        2.4214558414  W2        3555            0.0000000000
     10666      3556  TIP3      OH2           -11.1575687078      -32.6050563765      -10.8702341586  W2        3556            0.0000000000
     10667      3556  TIP3      H1            -11.5884987078      -33.0500463765      -10.1404941586  W2        3556            0.0000000000
     10668      3556  TIP3      H2            -11.8756987078      -32.2334263765      -11.3824841586  W2        3556            0.0000000000
     10669      3557  TIP3      OH2           -17.9152287078      -32.8631063765       -3.8183641586  W2        3557            0.0000000000
     10670      3557  TIP3      H1            -17.2844587078      -32.8918963765       -3.0989741586  W2        3557            0.0000000000
     10671      3557  TIP3      H2            -17.4657987078      -33.2882363765       -4.5487741586  W2        3557            0.0000000000
     10672      3558  TIP3      OH2           -16.6410187078      -32.1169063765       -8.3943241586  W2        3558            0.0000000000
     10673      3558  TIP3      H1            -16.1668487078      -31.5259163765       -8.9792341586  W2        3558            0.0000000000
     10674      3558  TIP3      H2            -17.3583787078      -31.5866163765       -8.0473141586  W2        3558            0.0000000000
     10675      3559  TIP3      OH2            -6.4722087078      -28.5784263765        1.6782558414  W2        3559            0.0000000000
     10676      3559  TIP3      H1             -6.1487287078      -29.2094563765        1.0353058414  W2        3559            0.0000000000
     10677      3559  TIP3      H2             -6.9122787078      -29.1132063765        2.3389958414  W2        3559            0.0000000000
     10678      3560  TIP3      OH2            -9.6949187078      -32.6508763765       -3.5376241586  W2        3560            0.0000000000
     10679      3560  TIP3      H1            -10.6058087078      -32.5941963765       -3.2490241586  W2        3560            0.0000000000
     10680      3560  TIP3      H2             -9.1896287078      -32.7113263765       -2.7269041586  W2        3560            0.0000000000
     10681      3561  TIP3      OH2           -14.8665787078      -31.0222463765       -4.7108641586  W2        3561            0.0000000000
     10682      3561  TIP3      H1            -15.7557787078      -30.9226963765       -5.0509041586  W2        3561            0.0000000000
     10683      3561  TIP3      H2            -14.5700887078      -31.8639463765       -5.0570741586  W2        3561            0.0000000000
     10684      3562  TIP3      OH2           -11.2133987078      -31.0219863765       -7.0544041586  W2        3562            0.0000000000
     10685      3562  TIP3      H1            -10.2818487078      -30.8929863765       -6.8760941586  W2        3562            0.0000000000
     10686      3562  TIP3      H2            -11.4283687078      -30.3525563765       -7.7039341586  W2        3562            0.0000000000
     10687      3563  TIP3      OH2            -5.2897287078      -33.4162463765       -0.2734441586  W2        3563            0.0000000000
     10688      3563  TIP3      H1             -5.9665687078      -33.2849363765        0.3905258414  W2        3563            0.0000000000
     10689      3563  TIP3      H2             -5.7752387078      -33.5712963765       -1.0836741586  W2        3563            0.0000000000
     10690      3564  TIP3      OH2           -12.5393787078      -29.8277663765       -9.4877941586  W2        3564            0.0000000000
     10691      3564  TIP3      H1            -13.0818687078      -30.2073863765      -10.1790341586  W2        3564            0.0000000000
     10692      3564  TIP3      H2            -11.7058887078      -29.6332963765       -9.9163841586  W2        3564            0.0000000000
     10693      3565  TIP3      OH2            -2.0022187078      -17.7447063765        6.0033158414  W2        3565            0.0000000000
     10694      3565  TIP3      H1             -1.8023487078      -17.3205163765        5.1688458414  W2        3565            0.0000000000
     10695      3565  TIP3      H2             -1.3468487078      -17.4008863765        6.6103558414  W2        3565            0.0000000000
     10696      3566  TIP3      OH2           -14.4042387078      -25.2705763765        5.6113658414  W2        3566            0.0000000000
     10697      3566  TIP3      H1            -13.6719987078      -25.0159863765        6.1728158414  W2        3566            0.0000000000
     10698      3566  TIP3      H2            -15.1843687078      -25.0660363765        6.1269058414  W2        3566            0.0000000000
     10699      3567  TIP3      OH2            -8.3749487078      -29.8635763765       -1.6506641586  W2        3567            0.0000000000
     10700      3567  TIP3      H1             -7.8106087078      -30.4099163765       -2.1977041586  W2        3567            0.0000000000
     10701      3567  TIP3      H2             -8.5226087078      -30.3853863765       -0.8619041586  W2        3567            0.0000000000
     10702      3568  TIP3      OH2           -13.3729787078      -33.7269663765       -5.2321841586  W2        3568            0.0000000000
     10703      3568  TIP3      H1            -13.6900287078      -34.6294363765       -5.2676441586  W2        3568            0.0000000000
     10704      3568  TIP3      H2            -12.5915687078      -33.7252263765       -5.7850241586  W2        3568            0.0000000000
     10705      3569  TIP3      OH2            -9.7483587078      -31.4749663765        0.7633758414  W2        3569            0.0000000000
     10706      3569  TIP3      H1            -10.5838287078      -31.0210163765        0.8736158414  W2        3569            0.0000000000
     10707      3569  TIP3      H2             -9.2242987078      -31.1991163765        1.5153658414  W2        3569            0.0000000000
     10708      3570  TIP3      OH2            -9.2040987078      -25.2621963765       -7.5519841586  W2        3570            0.0000000000
     10709      3570  TIP3      H1             -9.9489987078      -25.7696663765       -7.8741941586  W2        3570            0.0000000000
     10710      3570  TIP3      H2             -9.3383787078      -25.2133963765       -6.6055041586  W2        3570            0.0000000000
     10711      3571  TIP3      OH2            -2.0542087078      -26.1293763765        1.2347758414  W2        3571            0.0000000000
     10712      3571  TIP3      H1             -1.4123287078      -25.6727463765        0.6909958414  W2        3571            0.0000000000
     10713      3571  TIP3      H2             -2.8845187078      -26.0161363765        0.7721858414  W2        3571            0.0000000000
     10714      3572  TIP3      OH2            -5.3064187078      -32.4482063765       -9.3527241586  W2        3572            0.0000000000
     10715      3572  TIP3      H1             -6.2449987078      -32.3366463765       -9.5038441586  W2        3572            0.0000000000
     10716      3572  TIP3      H2             -5.0092087078      -31.5915163765       -9.0461541586  W2        3572            0.0000000000
     10717      3573  TIP3      OH2            -7.6848887078      -25.0778663765        3.6849258414  W2        3573            0.0000000000
     10718      3573  TIP3      H1             -8.0302787078      -25.4596263765        4.4918858414  W2        3573            0.0000000000
     10719      3573  TIP3      H2             -7.8848787078      -24.1445063765        3.7562158414  W2        3573            0.0000000000
     10720      3574  TIP3      OH2            -4.5880687078      -30.5809363765       -7.6919841586  W2        3574            0.0000000000
     10721      3574  TIP3      H1             -3.6961687078      -30.7184363765       -7.3728641586  W2        3574            0.0000000000
     10722      3574  TIP3      H2             -4.5317087078      -29.7903263765       -8.2286341586  W2        3574            0.0000000000
     10723      3575  TIP3      OH2           -14.0792687078      -25.9671963765       -1.7821941586  W2        3575            0.0000000000
     10724      3575  TIP3      H1            -13.3345487078      -25.9696263765       -2.3835441586  W2        3575            0.0000000000
     10725      3575  TIP3      H2            -14.0016087078      -26.7908163765       -1.3006841586  W2        3575            0.0000000000
     10726      3576  TIP3      OH2            -7.0786887078      -23.8037663765       -8.5265241586  W2        3576            0.0000000000
     10727      3576  TIP3      H1             -7.3738487078      -22.9769763765       -8.1450441586  W2        3576            0.0000000000
     10728      3576  TIP3      H2             -7.7816887078      -24.4230763765       -8.3303841586  W2        3576            0.0000000000
     10729      3577  TIP3      OH2           -17.0712987078      -27.5065063765        3.5326558414  W2        3577            0.0000000000
     10730      3577  TIP3      H1            -16.8484387078      -27.9245463765        4.3644058414  W2        3577            0.0000000000
     10731      3577  TIP3      H2            -17.6732887078      -28.1190063765        3.1099358414  W2        3577            0.0000000000
     10732      3578  TIP3      OH2           -10.0548087078      -27.9895163765        5.7456258414  W2        3578            0.0000000000
     10733      3578  TIP3      H1            -10.3507287078      -28.1552163765        4.8505358414  W2        3578            0.0000000000
     10734      3578  TIP3      H2             -9.1232887078      -28.2094863765        5.7350158414  W2        3578            0.0000000000
     10735      3579  TIP3      OH2            -5.4345287078      -22.6163163765        3.6354258414  W2        3579            0.0000000000
     10736      3579  TIP3      H1             -6.3350987078      -22.4330563765        3.3678158414  W2        3579            0.0000000000
     10737      3579  TIP3      H2             -5.4004187078      -22.3573863765        4.5563058414  W2        3579            0.0000000000
     10738      3580  TIP3      OH2             0.2968012922      -30.3715263765       -7.9973141586  W2        3580            0.0000000000
     10739      3580  TIP3      H1             -0.2575687078      -30.7677263765       -8.6695641586  W2        3580            0.0000000000
     10740      3580  TIP3      H2              0.3971612922      -29.4610063765       -8.2749841586  W2        3580            0.0000000000
     10741      3581  TIP3      OH2             0.2600012922      -24.5713563765        4.8398358414  W2        3581            0.0000000000
     10742      3581  TIP3      H1             -0.5911487078      -24.3329763765        4.4724758414  W2        3581            0.0000000000
     10743      3581  TIP3      H2              0.8503412922      -24.5880363765        4.0865458414  W2        3581            0.0000000000
     10744      3582  TIP3      OH2            -1.4080287078      -21.5854863765       -7.5321041586  W2        3582            0.0000000000
     10745      3582  TIP3      H1             -1.7809187078      -22.4111063765       -7.2230441586  W2        3582            0.0000000000
     10746      3582  TIP3      H2             -1.1306787078      -21.7685463765       -8.4297641586  W2        3582            0.0000000000
     10747      3583  TIP3      OH2            -4.2476387078      -26.7775363765       -0.5109141586  W2        3583            0.0000000000
     10748      3583  TIP3      H1             -5.1759487078      -27.0093463765       -0.5379841586  W2        3583            0.0000000000
     10749      3583  TIP3      H2             -3.7965287078      -27.5545563765       -0.8410341586  W2        3583            0.0000000000
     10750      3584  TIP3      OH2           -11.7043287078      -22.4493763765       -4.3780441586  W2        3584            0.0000000000
     10751      3584  TIP3      H1            -11.1771087078      -21.6759363765       -4.5781641586  W2        3584            0.0000000000
     10752      3584  TIP3      H2            -12.5844787078      -22.2244563765       -4.6796441586  W2        3584            0.0000000000
     10753      3585  TIP3      OH2           -15.9495587078      -27.5869663765       -9.7908041586  W2        3585            0.0000000000
     10754      3585  TIP3      H1            -15.3335687078      -26.9602463765       -9.4113241586  W2        3585            0.0000000000
     10755      3585  TIP3      H2            -16.8112987078      -27.2709863765       -9.5191541586  W2        3585            0.0000000000
     10756      3586  TIP3      OH2           -10.2770987078      -24.7863863765       -4.8016141586  W2        3586            0.0000000000
     10757      3586  TIP3      H1            -10.5180987078      -23.8609463765       -4.7600841586  W2        3586            0.0000000000
     10758      3586  TIP3      H2            -11.0177387078      -25.2452563765       -4.4052241586  W2        3586            0.0000000000
     10759      3587  TIP3      OH2            -9.7624387078      -20.6370263765        1.5134958414  W2        3587            0.0000000000
     10760      3587  TIP3      H1             -9.3999687078      -19.7824663765        1.2799358414  W2        3587            0.0000000000
     10761      3587  TIP3      H2             -9.2309187078      -20.9288663765        2.2541258414  W2        3587            0.0000000000
     10762      3588  TIP3      OH2           -11.5940187078      -19.7646263765       -5.2563941586  W2        3588            0.0000000000
     10763      3588  TIP3      H1            -12.5439687078      -19.6588863765       -5.2050641586  W2        3588            0.0000000000
     10764      3588  TIP3      H2            -11.2422087078      -18.9438863765       -4.9116441586  W2        3588            0.0000000000
     10765      3589  TIP3      OH2            -6.2183587078      -24.5379563765        1.2140558414  W2        3589            0.0000000000
     10766      3589  TIP3      H1             -6.6442287078      -24.7657863765        2.0404558414  W2        3589            0.0000000000
     10767      3589  TIP3      H2             -5.6377787078      -25.2767763765        1.0315858414  W2        3589            0.0000000000
     10768      3590  TIP3      OH2            -4.0154687078      -23.6089063765       -9.7120441586  W2        3590            0.0000000000
     10769      3590  TIP3      H1             -3.6621587078      -23.9889263765       -8.9076941586  W2        3590            0.0000000000
     10770      3590  TIP3      H2             -4.9641187078      -23.7024263765       -9.6251141586  W2        3590            0.0000000000
     10771      3591  TIP3      OH2            -3.5599387078      -19.9860063765        3.6835358414  W2        3591            0.0000000000
     10772      3591  TIP3      H1             -4.1616187078      -20.5417163765        3.1881658414  W2        3591            0.0000000000
     10773      3591  TIP3      H2             -3.2785687078      -19.3190263765        3.0572758414  W2        3591            0.0000000000
     10774      3592  TIP3      OH2             0.4879712922      -19.1296563765       -9.5110241586  W2        3592            0.0000000000
     10775      3592  TIP3      H1              1.2317612922      -18.5436063765       -9.6508641586  W2        3592            0.0000000000
     10776      3592  TIP3      H2             -0.2062187078      -18.5610763765       -9.1777841586  W2        3592            0.0000000000
     10777      3593  TIP3      OH2           -15.4373487078      -32.7532363765        3.0907958414  W2        3593            0.0000000000
     10778      3593  TIP3      H1            -16.3301187078      -32.4146963765        3.0231958414  W2        3593            0.0000000000
     10779      3593  TIP3      H2            -15.5360687078      -33.6086263765        3.5088758414  W2        3593            0.0000000000
     10780      3594  TIP3      OH2            -3.1495387078      -24.9367063765       -7.4852541586  W2        3594            0.0000000000
     10781      3594  TIP3      H1             -3.4267787078      -25.6647763765       -6.9291441586  W2        3594            0.0000000000
     10782      3594  TIP3      H2             -2.2222387078      -24.8175063765       -7.2799941586  W2        3594            0.0000000000
     10783      3595  TIP3      OH2           -15.7861487078      -20.9487963765        1.5257358414  W2        3595            0.0000000000
     10784      3595  TIP3      H1            -15.5691187078      -21.8805563765        1.4947058414  W2        3595            0.0000000000
     10785      3595  TIP3      H2            -15.5397987078      -20.6742963765        2.4090158414  W2        3595            0.0000000000
     10786      3596  TIP3      OH2            -9.9246887078      -22.4972963765      -11.2650441586  W2        3596            0.0000000000
     10787      3596  TIP3      H1             -9.6857087078      -23.2454863765      -11.8121541586  W2        3596            0.0000000000
     10788      3596  TIP3      H2            -10.1935587078      -22.8851263765      -10.4322641586  W2        3596            0.0000000000
     10789      3597  TIP3      OH2           -10.9876287078      -22.9269163765       -8.8087841586  W2        3597            0.0000000000
     10790      3597  TIP3      H1            -10.8408287078      -23.4469363765       -8.0186941586  W2        3597            0.0000000000
     10791      3597  TIP3      H2            -10.9904587078      -22.0201563765       -8.5021941586  W2        3597            0.0000000000
     10792      3598  TIP3      OH2           -14.5345187078      -25.6745863765       -8.2982441586  W2        3598            0.0000000000
     10793      3598  TIP3      H1            -15.2205887078      -25.3223363765       -7.7312741586  W2        3598            0.0000000000
     10794      3598  TIP3      H2            -14.0117287078      -24.9116263765       -8.5448141586  W2        3598            0.0000000000
     10795      3599  TIP3      OH2            -6.7030087078      -33.0122063765        1.9806558414  W2        3599            0.0000000000
     10796      3599  TIP3      H1             -6.0042187078      -32.9383363765        2.6306258414  W2        3599            0.0000000000
     10797      3599  TIP3      H2             -7.0838687078      -33.8767063765        2.1349458414  W2        3599            0.0000000000
     10798      3600  TIP3      OH2            -5.9185187078      -33.3600363765       -6.9221141586  W2        3600            0.0000000000
     10799      3600  TIP3      H1             -5.6986887078      -32.8884963765       -7.7255741586  W2        3600            0.0000000000
     10800      3600  TIP3      H2             -5.3601187078      -32.9657763765       -6.2520541586  W2        3600            0.0000000000
     10801      3601  TIP3      OH2            -8.2499087078      -21.2295563765       -8.0593641586  W2        3601            0.0000000000
     10802      3601  TIP3      H1             -9.0662987078      -20.7325863765       -8.0069341586  W2        3601            0.0000000000
     10803      3601  TIP3      H2             -7.7202787078      -20.7542063765       -8.6994841586  W2        3601            0.0000000000
     10804      3602  TIP3      OH2            -8.7185287078      -31.6321563765       -6.0872741586  W2        3602            0.0000000000
     10805      3602  TIP3      H1             -7.9062687078      -31.1278363765       -6.0411041586  W2        3602            0.0000000000
     10806      3602  TIP3      H2             -8.9632287078      -31.7771863765       -5.1733141586  W2        3602            0.0000000000
     10807      3603  TIP3      OH2            -8.1828887078      -30.6458863765        3.0973858414  W2        3603            0.0000000000
     10808      3603  TIP3      H1             -8.0638587078      -30.0723463765        3.8544258414  W2        3603            0.0000000000
     10809      3603  TIP3      H2             -7.5274287078      -31.3339463765        3.2121658414  W2        3603            0.0000000000
     10810      3604  TIP3      OH2            -7.8348587078      -34.5508563765       -5.1491641586  W2        3604            0.0000000000
     10811      3604  TIP3      H1             -8.1815087078      -33.9337963765       -4.5047341586  W2        3604            0.0000000000
     10812      3604  TIP3      H2             -7.1761687078      -34.0502863765       -5.6306141586  W2        3604            0.0000000000
     10813      3605  TIP3      OH2           -10.9115987078      -20.1858363765       -8.0776741586  W2        3605            0.0000000000
     10814      3605  TIP3      H1            -10.7507287078      -19.3860863765       -8.5784141586  W2        3605            0.0000000000
     10815      3605  TIP3      H2            -11.1088187078      -19.8792363765       -7.1926141586  W2        3605            0.0000000000
     10816      3606  TIP3      OH2           -12.1771587078      -33.4879163765       -8.4619141586  W2        3606            0.0000000000
     10817      3606  TIP3      H1            -12.2606787078      -32.5996063765       -8.1152741586  W2        3606            0.0000000000
     10818      3606  TIP3      H2            -11.2871287078      -33.7532463765       -8.2302341586  W2        3606            0.0000000000
     10819      3607  TIP3      OH2            -1.9783087078      -32.7388563765        3.9323558414  W2        3607            0.0000000000
     10820      3607  TIP3      H1             -2.8947287078      -32.4766863765        3.8447258414  W2        3607            0.0000000000
     10821      3607  TIP3      H2             -1.6428087078      -32.7419563765        3.0358858414  W2        3607            0.0000000000
     10822      3608  TIP3      OH2            -3.3762087078      -28.9887563765       -1.9719141586  W2        3608            0.0000000000
     10823      3608  TIP3      H1             -4.1737687078      -29.4037363765       -2.3004141586  W2        3608            0.0000000000
     10824      3608  TIP3      H2             -2.9310987078      -29.6793863765       -1.4808641586  W2        3608            0.0000000000
     10825      3609  TIP3      OH2           -13.9186287078      -23.0606963765       -9.4014641586  W2        3609            0.0000000000
     10826      3609  TIP3      H1            -13.3264787078      -22.3612163765       -9.1252241586  W2        3609            0.0000000000
     10827      3609  TIP3      H2            -13.4593287078      -23.4937463765      -10.1210041586  W2        3609            0.0000000000
     10828      3610  TIP3      OH2           -15.6027087078      -30.3963963765      -10.2855241586  W2        3610            0.0000000000
     10829      3610  TIP3      H1            -15.6474487078      -29.4570863765      -10.1068241586  W2        3610            0.0000000000
     10830      3610  TIP3      H2            -16.4903887078      -30.6319063765      -10.5553141586  W2        3610            0.0000000000
     10831      3611  TIP3      OH2            -2.2897487078      -19.7325063765       -0.3495641586  W2        3611            0.0000000000
     10832      3611  TIP3      H1             -2.4453187078      -19.0540663765       -1.0066341586  W2        3611            0.0000000000
     10833      3611  TIP3      H2             -1.3571087078      -19.6605763765       -0.1465041586  W2        3611            0.0000000000
     10834      3612  TIP3      OH2           -14.7945087078      -35.6147363765       -1.6124241586  W2        3612            0.0000000000
     10835      3612  TIP3      H1            -15.0235287078      -35.5554863765       -2.5399241586  W2        3612            0.0000000000
     10836      3612  TIP3      H2            -15.2371687078      -36.4061863765       -1.3060141586  W2        3612            0.0000000000
     10837      3613  TIP3      OH2           -15.8641787078      -21.6740263765       -5.4518441586  W2        3613            0.0000000000
     10838      3613  TIP3      H1            -16.6963187078      -21.2017563765       -5.4247041586  W2        3613            0.0000000000
     10839      3613  TIP3      H2            -15.3183487078      -21.1642663765       -6.0505341586  W2        3613            0.0000000000
     10840      3614  TIP3      OH2           -16.5758087078      -19.0616563765        5.8779558414  W2        3614            0.0000000000
     10841      3614  TIP3      H1            -16.0355887078      -19.2782563765        6.6378758414  W2        3614            0.0000000000
     10842      3614  TIP3      H2            -17.0570087078      -19.8670563765        5.6882058414  W2        3614            0.0000000000
     10843      3615  TIP3      OH2           -11.9784687078      -20.1422163765        7.4983758414  W2        3615            0.0000000000
     10844      3615  TIP3      H1            -11.2107487078      -20.6011363765        7.8392958414  W2        3615            0.0000000000
     10845      3615  TIP3      H2            -11.9998487078      -20.3682363765        6.5684958414  W2        3615            0.0000000000
     10846      3616  TIP3      OH2            -7.8865087078      -20.6341563765      -11.1264441586  W2        3616            0.0000000000
     10847      3616  TIP3      H1             -8.5304087078      -21.2652963765      -10.8050741586  W2        3616            0.0000000000
     10848      3616  TIP3      H2             -7.1246787078      -21.1653563765      -11.3580941586  W2        3616            0.0000000000
     10849      3617  TIP3      OH2            -5.4015987078      -21.7621063765        6.2275258414  W2        3617            0.0000000000
     10850      3617  TIP3      H1             -5.7526487078      -22.6188063765        6.4705658414  W2        3617            0.0000000000
     10851      3617  TIP3      H2             -4.6752787078      -21.6194363765        6.8344258414  W2        3617            0.0000000000
     10852      3618  TIP3      OH2            -3.2822187078      -20.8171663765      -10.8926441586  W2        3618            0.0000000000
     10853      3618  TIP3      H1             -2.9991787078      -21.6116463765      -10.4399541586  W2        3618            0.0000000000
     10854      3618  TIP3      H2             -2.5424287078      -20.5840663765      -11.4535341586  W2        3618            0.0000000000
     10855      3619  TIP3      OH2           -16.6688587078      -25.2512463765        6.8323858414  W2        3619            0.0000000000
     10856      3619  TIP3      H1            -16.5248087078      -26.1531763765        6.5460558414  W2        3619            0.0000000000
     10857      3619  TIP3      H2            -17.4411187078      -24.9650363765        6.3446158414  W2        3619            0.0000000000
     10858      3620  TIP3      OH2           -12.3274887078      -24.9076763765      -11.0351541586  W2        3620            0.0000000000
     10859      3620  TIP3      H1            -12.2630787078      -25.7017163765      -10.5045141586  W2        3620            0.0000000000
     10860      3620  TIP3      H2            -11.6745687078      -25.0263963765      -11.7249541586  W2        3620            0.0000000000
     10861      3621  TIP3      OH2           -10.0132487078      -25.2814363765        6.2650258414  W2        3621            0.0000000000
     10862      3621  TIP3      H1            -10.3418687078      -25.0106263765        5.4077658414  W2        3621            0.0000000000
     10863      3621  TIP3      H2             -9.8614287078      -26.2224563765        6.1775258414  W2        3621            0.0000000000
     10864      3622  TIP3      OH2            -6.9751487078      -23.8605063765      -11.2993541586  W2        3622            0.0000000000
     10865      3622  TIP3      H1             -7.2437387078      -23.6802963765      -10.3984641586  W2        3622            0.0000000000
     10866      3622  TIP3      H2             -7.1815887078      -24.7858863765      -11.4307741586  W2        3622            0.0000000000
     10867      3623  TIP3      OH2            -4.2787287078      -25.3657063765        3.6482558414  W2        3623            0.0000000000
     10868      3623  TIP3      H1             -3.5332487078      -24.7773363765        3.5286558414  W2        3623            0.0000000000
     10869      3623  TIP3      H2             -5.0360487078      -24.7837363765        3.7115658414  W2        3623            0.0000000000
     10870      3624  TIP3      OH2           -15.8362087078      -28.0509163765        6.2523158414  W2        3624            0.0000000000
     10871      3624  TIP3      H1            -15.4280887078      -28.9082563765        6.1313758414  W2        3624            0.0000000000
     10872      3624  TIP3      H2            -16.0964487078      -28.0367863765        7.1733458414  W2        3624            0.0000000000
     10873      3625  TIP3      OH2           -11.1781087078      -26.9350563765       -8.7293541586  W2        3625            0.0000000000
     10874      3625  TIP3      H1            -11.6379087078      -27.4192263765       -8.0435041586  W2        3625            0.0000000000
     10875      3625  TIP3      H2            -10.9232387078      -27.6035163765       -9.3653041586  W2        3625            0.0000000000
     10876      3626  TIP3      OH2           -11.8891787078      -29.0423463765        3.6266058414  W2        3626            0.0000000000
     10877      3626  TIP3      H1            -12.5075687078      -28.3676863765        3.9070758414  W2        3626            0.0000000000
     10878      3626  TIP3      H2            -11.5450587078      -28.7209563765        2.7932258414  W2        3626            0.0000000000
     10879      3627  TIP3      OH2           -10.1070687078      -28.6918763765      -10.4670341586  W2        3627            0.0000000000
     10880      3627  TIP3      H1            -10.2875687078      -28.8467563765      -11.3942041586  W2        3627            0.0000000000
     10881      3627  TIP3      H2             -9.1570187078      -28.5840063765      -10.4222441586  W2        3627            0.0000000000
     10882      3628  TIP3      OH2            -6.8693587078      -26.5708163765        6.9040858414  W2        3628            0.0000000000
     10883      3628  TIP3      H1             -5.9162387078      -26.4869063765        6.8766858414  W2        3628            0.0000000000
     10884      3628  TIP3      H2             -7.0298987078      -27.2826363765        7.5235758414  W2        3628            0.0000000000
     10885      3629  TIP3      OH2            -0.7172387078      -26.3374563765      -11.0212241586  W2        3629            0.0000000000
     10886      3629  TIP3      H1             -0.9907587078      -26.7619063765      -11.8343941586  W2        3629            0.0000000000
     10887      3629  TIP3      H2             -0.6778287078      -25.4060063765      -11.2381841586  W2        3629            0.0000000000
     10888      3630  TIP3      OH2           -11.5498087078      -31.6872663765        4.7089158414  W2        3630            0.0000000000
     10889      3630  TIP3      H1            -11.3997187078      -32.4161363765        4.1068858414  W2        3630            0.0000000000
     10890      3630  TIP3      H2            -11.5475687078      -30.9100963765        4.1501358414  W2        3630            0.0000000000
     10891      3631  TIP3      OH2           -11.1372387078      -33.3176863765        2.2016558414  W2        3631            0.0000000000
     10892      3631  TIP3      H1            -10.6014887078      -32.8660163765        1.5495858414  W2        3631            0.0000000000
     10893      3631  TIP3      H2            -11.9892787078      -33.4257063765        1.7790658414  W2        3631            0.0000000000
     10894      3632  TIP3      OH2            -9.5553987078      -27.8780663765        2.4411758414  W2        3632            0.0000000000
     10895      3632  TIP3      H1             -8.8049187078      -28.0343163765        1.8679558414  W2        3632            0.0000000000
     10896      3632  TIP3      H2             -9.8945687078      -27.0264063765        2.1657258414  W2        3632            0.0000000000
     10897      3633  TIP3      OH2            -5.1397787078      -30.0628863765        7.4697058414  W2        3633            0.0000000000
     10898      3633  TIP3      H1             -4.9476487078      -30.9939463765        7.3581558414  W2        3633            0.0000000000
     10899      3633  TIP3      H2             -4.2821487078      -29.6379363765        7.4592458414  W2        3633            0.0000000000
     10900      3634  TIP3      OH2            -3.8230587078      -27.2743663765        5.5469758414  W2        3634            0.0000000000
     10901      3634  TIP3      H1             -4.1045587078      -26.5649063765        4.9693558414  W2        3634            0.0000000000
     10902      3634  TIP3      H2             -2.8806287078      -27.3470663765        5.3960958414  W2        3634            0.0000000000
     10903      3635  TIP3      OH2           -13.0711787078      -30.4889163765        6.6204758414  W2        3635            0.0000000000
     10904      3635  TIP3      H1            -13.8382787078      -31.0214363765        6.4102358414  W2        3635            0.0000000000
     10905      3635  TIP3      H2            -12.3922787078      -30.7988763765        6.0211058414  W2        3635            0.0000000000
     10906      3636  TIP3      OH2           -10.3316887078      -35.8611163765        2.6330158414  W2        3636            0.0000000000
     10907      3636  TIP3      H1            -10.4297287078      -34.9147963765        2.5276358414  W2        3636            0.0000000000
     10908      3636  TIP3      H2            -11.0740687078      -36.2337363765        2.1573658414  W2        3636            0.0000000000
     10909      3637  TIP3      OH2            -9.0676387078      -31.5395763765        6.1968558414  W2        3637            0.0000000000
     10910      3637  TIP3      H1             -9.3030987078      -31.7589063765        7.0983458414  W2        3637            0.0000000000
     10911      3637  TIP3      H2             -9.8509487078      -31.7464563765        5.6871058414  W2        3637            0.0000000000
     10912      3638  TIP3      OH2            -6.3519787078      -32.4122263765        5.2722058414  W2        3638            0.0000000000
     10913      3638  TIP3      H1             -7.2994387078      -32.3802563765        5.4045358414  W2        3638            0.0000000000
     10914      3638  TIP3      H2             -6.0393087078      -33.0375163765        5.9260258414  W2        3638            0.0000000000
     10915      3639  TIP3      OH2            -4.7178287078      -33.7781163765        7.2773958414  W2        3639            0.0000000000
     10916      3639  TIP3      H1             -4.8146487078      -34.7303863765        7.2715858414  W2        3639            0.0000000000
     10917      3639  TIP3      H2             -5.0395187078      -33.5094363765        8.1379458414  W2        3639            0.0000000000
     10918      3640  TIP3      OH2           -14.8908987078      -32.5685363765        6.3249458414  W2        3640            0.0000000000
     10919      3640  TIP3      H1            -14.6791587078      -33.2749263765        5.7146958414  W2        3640            0.0000000000
     10920      3640  TIP3      H2            -15.0021487078      -33.0059363765        7.1690658414  W2        3640            0.0000000000
     10921      3641  TIP3      OH2           -10.1098787078      -36.5673763765        5.3042958414  W2        3641            0.0000000000
     10922      3641  TIP3      H1             -9.3980387078      -37.2071563765        5.2902058414  W2        3641            0.0000000000
     10923      3641  TIP3      H2            -10.2108387078      -36.3005463765        4.3906058414  W2        3641            0.0000000000
     10924      3642  TIP3      OH2            -9.7561287078      -34.8845363765        7.3579258414  W2        3642            0.0000000000
     10925      3642  TIP3      H1             -9.8879087078      -35.3601563765        6.5377758414  W2        3642            0.0000000000
     10926      3642  TIP3      H2            -10.3553887078      -34.1401763765        7.3026358414  W2        3642            0.0000000000
     10927      3643  TIP3      OH2           -10.2098987078      -18.0015063765       -9.4656741586  W2        3643            0.0000000000
     10928      3643  TIP3      H1             -9.2768287078      -17.8436363765       -9.3218341586  W2        3643            0.0000000000
     10929      3643  TIP3      H2            -10.4740187078      -17.3262063765      -10.0905241586  W2        3643            0.0000000000
     10930      3644  TIP3      OH2           -16.6414087078      -23.3651263765       -9.9828641586  W2        3644            0.0000000000
     10931      3644  TIP3      H1            -15.7274887078      -23.2862363765       -9.7094741586  W2        3644            0.0000000000
     10932      3644  TIP3      H2            -16.6340987078      -24.0521663765      -10.6493041586  W2        3644            0.0000000000
     10933      3645  TIP3      OH2           -17.9923487078      -17.9722763765       -4.9054741586  W2        3645            0.0000000000
     10934      3645  TIP3      H1            -18.6396387078      -18.4341063765       -5.4383541586  W2        3645            0.0000000000
     10935      3645  TIP3      H2            -17.6378887078      -18.6439463765       -4.3228541586  W2        3645            0.0000000000
     10936      3646  TIP3      OH2           -17.1224287078      -19.8915763765       -3.1008541586  W2        3646            0.0000000000
     10937      3646  TIP3      H1            -17.4567487078      -20.7718463765       -2.9288341586  W2        3646            0.0000000000
     10938      3646  TIP3      H2            -16.9001887078      -19.5460763765       -2.2362941586  W2        3646            0.0000000000
     10939      3647  TIP3      OH2             0.4260512922      -19.0819363765       -0.1203741586  W2        3647            0.0000000000
     10940      3647  TIP3      H1              0.4047212922      -18.8970963765        0.8185658414  W2        3647            0.0000000000
     10941      3647  TIP3      H2              1.1166712922      -18.5135363765       -0.4612341586  W2        3647            0.0000000000
     10942      3648  TIP3      OH2            -0.0106587078      -19.5148263765        2.8015358414  W2        3648            0.0000000000
     10943      3648  TIP3      H1             -0.4977887078      -20.2504163765        2.4302758414  W2        3648            0.0000000000
     10944      3648  TIP3      H2              0.5386112922      -19.9084363765        3.4794758414  W2        3648            0.0000000000
     10945      3649  TIP3      OH2            -1.5599287078      -23.7250163765        7.4395658414  W2        3649            0.0000000000
     10946      3649  TIP3      H1             -2.4258187078      -23.8300463765        7.8337958414  W2        3649            0.0000000000
     10947      3649  TIP3      H2             -1.1833387078      -22.9666863765        7.8860358414  W2        3649            0.0000000000
     10948      3650  TIP3      OH2            -0.2589587078      -25.4686463765       -7.0461841586  W2        3650            0.0000000000
     10949      3650  TIP3      H1              0.5911812922      -25.0475563765       -6.9190241586  W2        3650            0.0000000000
     10950      3650  TIP3      H2             -0.2534487078      -26.2086363765       -6.4390441586  W2        3650            0.0000000000
     10951      3651  TIP3      OH2             0.1356012922      -27.4149063765       -5.2226141586  W2        3651            0.0000000000
     10952      3651  TIP3      H1             -0.5909387078      -27.8946463765       -4.8248541586  W2        3651            0.0000000000
     10953      3651  TIP3      H2              0.7169312922      -27.2094363765       -4.4904541586  W2        3651            0.0000000000
     10954      3652  TIP3      OH2            -0.1052787078      -24.6301563765       -0.2748541586  W2        3652            0.0000000000
     10955      3652  TIP3      H1              0.7281412922      -25.0081563765       -0.5554941586  W2        3652            0.0000000000
     10956      3652  TIP3      H2              0.0067512922      -23.6870363765       -0.3939441586  W2        3652            0.0000000000
     10957      3653  TIP3      OH2            -1.6190487078      -21.7524063765        2.0319858414  W2        3653            0.0000000000
     10958      3653  TIP3      H1             -2.2665187078      -21.4272563765        2.6575058414  W2        3653            0.0000000000
     10959      3653  TIP3      H2             -2.1366487078      -22.1926363765        1.3578158414  W2        3653            0.0000000000
     10960      3654  TIP3      OH2             0.4039112922      -27.5140563765       -8.8314841586  W2        3654            0.0000000000
     10961      3654  TIP3      H1             -0.1179787078      -27.1576463765       -9.5503941586  W2        3654            0.0000000000
     10962      3654  TIP3      H2              0.3708312922      -26.8392763765       -8.1533941586  W2        3654            0.0000000000
     10963      3655  TIP3      OH2            -1.2471887078      -30.2744963765      -10.2807741586  W2        3655            0.0000000000
     10964      3655  TIP3      H1             -1.1507487078      -29.6077963765      -10.9608041586  W2        3655            0.0000000000
     10965      3655  TIP3      H2             -1.3872287078      -31.0898663765      -10.7622241586  W2        3655            0.0000000000
     10966      3656  TIP3      OH2            -2.0777187078      -28.8942563765       -4.6597441586  W2        3656            0.0000000000
     10967      3656  TIP3      H1             -2.2278387078      -29.8393963765       -4.6799641586  W2        3656            0.0000000000
     10968      3656  TIP3      H2             -2.4312687078      -28.6131163765       -3.8158341586  W2        3656            0.0000000000
     10969      3657  TIP3      OH2           -17.0424787078      -26.8160363765       -0.6493641586  W2        3657            0.0000000000
     10970      3657  TIP3      H1            -16.8581887078      -26.8978663765       -1.5850741586  W2        3657            0.0000000000
     10971      3657  TIP3      H2            -16.1931887078      -26.9403363765       -0.2257241586  W2        3657            0.0000000000
     10972      3658  TIP3      OH2            -1.2214287078      -26.9239263765        4.9790858414  W2        3658            0.0000000000
     10973      3658  TIP3      H1             -0.6386987078      -27.6586963765        5.1708058414  W2        3658            0.0000000000
     10974      3658  TIP3      H2             -0.6574987078      -26.1518963765        5.0256658414  W2        3658            0.0000000000
     10975      3659  TIP3      OH2             0.2752812922      -29.0213463765        5.6636258414  W2        3659            0.0000000000
     10976      3659  TIP3      H1             -0.5880487078      -29.4001363765        5.4980958414  W2        3659            0.0000000000
     10977      3659  TIP3      H2              0.8796512922      -29.7598663765        5.5892058414  W2        3659            0.0000000000
     10978      3660  TIP3      OH2            -1.9998087078      -32.8665163765      -11.1632241586  W2        3660            0.0000000000
     10979      3660  TIP3      H1             -1.3892287078      -33.2378363765      -10.5264041586  W2        3660            0.0000000000
     10980      3660  TIP3      H2             -2.8366587078      -33.2878263765      -10.9672241586  W2        3660            0.0000000000
     10981      3661  TIP3      OH2            -2.3672387078      -31.3116763765       -6.1972341586  W2        3661            0.0000000000
     10982      3661  TIP3      H1             -2.0875287078      -32.2186363765       -6.0730641586  W2        3661            0.0000000000
     10983      3661  TIP3      H2             -1.6080687078      -30.8775263765       -6.5863141586  W2        3661            0.0000000000
     10984      3662  TIP3      OH2            -1.7554087078      -30.7299363765       -0.7613441586  W2        3662            0.0000000000
     10985      3662  TIP3      H1             -0.8226087078      -30.5179463765       -0.7957441586  W2        3662            0.0000000000
     10986      3662  TIP3      H2             -1.9906587078      -30.6287263765        0.1609558414  W2        3662            0.0000000000
     10987      3663  TIP3      OH2            -1.7262187078      -29.9934063765        2.0145958414  W2        3663            0.0000000000
     10988      3663  TIP3      H1             -2.5690887078      -29.7253663765        2.3805758414  W2        3663            0.0000000000
     10989      3663  TIP3      H2             -1.2837887078      -29.1712163765        1.8037058414  W2        3663            0.0000000000
     10990      3664  TIP3      OH2           -17.4449987078      -31.5455363765        5.4915158414  W2        3664            0.0000000000
     10991      3664  TIP3      H1            -16.5255087078      -31.6677063765        5.7278258414  W2        3664            0.0000000000
     10992      3664  TIP3      H2            -17.8945487078      -32.2955663765        5.8808658414  W2        3664            0.0000000000
     10993      3665  TIP3      OH2             0.5569412922      -36.0133863765        7.3680958414  W2        3665            0.0000000000
     10994      3665  TIP3      H1              0.9066412922      -36.6670363765        6.7625658414  W2        3665            0.0000000000
     10995      3665  TIP3      H2              0.7038912922      -35.1759763765        6.9283558414  W2        3665            0.0000000000
     10996      3666  TIP3      OH2            -1.7537587078      -34.0487463765       -6.1490341586  W2        3666            0.0000000000
     10997      3666  TIP3      H1             -1.5712587078      -34.4975963765       -5.3235341586  W2        3666            0.0000000000
     10998      3666  TIP3      H2             -2.3534687078      -34.6333063765       -6.6125741586  W2        3666            0.0000000000
     10999      3667  TIP3      OH2           -16.2237487078      -33.2333763765       -1.6171941586  W2        3667            0.0000000000
     11000      3667  TIP3      H1            -15.7785887078      -34.0251263765       -1.3152241586  W2        3667            0.0000000000
     11001      3667  TIP3      H2            -15.7574487078      -32.5168563765       -1.1866341586  W2        3667            0.0000000000
     11002      3668  TIP3      OH2           -17.9197187078      -30.2340763765       -0.5481741586  W2        3668            0.0000000000
     11003      3668  TIP3      H1            -17.4277387078      -30.4550263765       -1.3389741586  W2        3668            0.0000000000
     11004      3668  TIP3      H2            -17.5576287078      -29.3937363765       -0.2672241586  W2        3668            0.0000000000
     11005      3669  TIP3      OH2             0.0766612922      -33.9039263765        5.7172258414  W2        3669            0.0000000000
     11006      3669  TIP3      H1             -0.8407687078      -33.6332163765        5.6815758414  W2        3669            0.0000000000
     11007      3669  TIP3      H2              0.1996012922      -34.4390863765        4.9331958414  W2        3669            0.0000000000
     11008      3670  TIP3      OH2             0.1128612922      -33.9809363765       -9.6210041586  W2        3670            0.0000000000
     11009      3670  TIP3      H1              0.5251212922      -34.7023663765      -10.0962041586  W2        3670            0.0000000000
     11010      3670  TIP3      H2              0.7945112922      -33.3114763765       -9.5625741586  W2        3670            0.0000000000
     11011      3671  TIP3      OH2           -17.6060687078      -33.9761663765       -6.4939341586  W2        3671            0.0000000000
     11012      3671  TIP3      H1            -18.5312287078      -33.7675063765       -6.6233841586  W2        3671            0.0000000000
     11013      3671  TIP3      H2            -17.1520787078      -33.4920863765       -7.1837041586  W2        3671            0.0000000000
     11014      3672  TIP3      OH2            -2.8353487078      -18.9919963765       -4.5481941586  W2        3672            0.0000000000
     11015      3672  TIP3      H1             -2.1830587078      -19.3397863765       -5.1562841586  W2        3672            0.0000000000
     11016      3672  TIP3      H2             -2.3249687078      -18.5036763765       -3.9022241586  W2        3672            0.0000000000
     11017      3673  TIP3      OH2           -17.6425287078      -35.2382663765        1.8503158414  W2        3673            0.0000000000
     11018      3673  TIP3      H1            -18.3074787078      -35.4842363765        2.4934058414  W2        3673            0.0000000000
     11019      3673  TIP3      H2            -18.0853987078      -34.6162263765        1.2731158414  W2        3673            0.0000000000
     11020      3674  TIP3      OH2           -15.4505987078      -22.0628563765        5.9948958414  W2        3674            0.0000000000
     11021      3674  TIP3      H1            -16.2713487078      -21.8882063765        5.5343658414  W2        3674            0.0000000000
     11022      3674  TIP3      H2            -15.7028187078      -22.1363863765        6.9153358414  W2        3674            0.0000000000
     11023      3675  TIP3      OH2           -12.4963087078      -21.0887363765        2.2532958414  W2        3675            0.0000000000
     11024      3675  TIP3      H1            -12.9211987078      -20.2788863765        1.9707558414  W2        3675            0.0000000000
     11025      3675  TIP3      H2            -11.5920287078      -21.0033263765        1.9512758414  W2        3675            0.0000000000
     11026      3676  TIP3      OH2            -8.1851687078      -19.6897363765        5.2126658414  W2        3676            0.0000000000
     11027      3676  TIP3      H1             -8.0004187078      -20.0231263765        6.0906958414  W2        3676            0.0000000000
     11028      3676  TIP3      H2             -7.3387187078      -19.3798763765        4.8905858414  W2        3676            0.0000000000
     11029      3677  TIP3      OH2            -5.8401287078      -18.4038463765        4.4568058414  W2        3677            0.0000000000
     11030      3677  TIP3      H1             -5.1632387078      -19.0366163765        4.2167258414  W2        3677            0.0000000000
     11031      3677  TIP3      H2             -5.5182487078      -18.0027963765        5.2641358414  W2        3677            0.0000000000
     11032      3678  TIP3      OH2            -0.9227487078      -35.8142963765        3.5363058414  W2        3678            0.0000000000
     11033      3678  TIP3      H1             -1.7353987078      -35.4892663765        3.1487758414  W2        3678            0.0000000000
     11034      3678  TIP3      H2             -0.6898987078      -36.5744463765        3.0032158414  W2        3678            0.0000000000
     11035      3679  TIP3      OH2           -15.0946387078      -17.8323463765        2.3008258414  W2        3679            0.0000000000
     11036      3679  TIP3      H1            -15.8149987078      -17.3922463765        1.8495958414  W2        3679            0.0000000000
     11037      3679  TIP3      H2            -15.4602387078      -18.0828763765        3.1492258414  W2        3679            0.0000000000
     11038      3680  TIP3      OH2           -12.6273787078      -18.2319563765        1.3305458414  W2        3680            0.0000000000
     11039      3680  TIP3      H1            -13.4921587078      -18.1601063765        1.7345558414  W2        3680            0.0000000000
     11040      3680  TIP3      H2            -12.6824787078      -17.6852263765        0.5467958414  W2        3680            0.0000000000
     11041      3681  TIP3      OH2            -7.9168187078      -18.3440663765        0.5061458414  W2        3681            0.0000000000
     11042      3681  TIP3      H1             -8.3734187078      -17.8150963765       -0.1480141586  W2        3681            0.0000000000
     11043      3681  TIP3      H2             -7.7540187078      -17.7409263765        1.2313758414  W2        3681            0.0000000000
     11044      3682  TIP3      OH2            -5.5891887078      -19.4661063765        1.4511758414  W2        3682            0.0000000000
     11045      3682  TIP3      H1             -6.4938187078      -19.3010863765        1.1853858414  W2        3682            0.0000000000
     11046      3682  TIP3      H2             -5.1603287078      -18.6128863765        1.3855158414  W2        3682            0.0000000000
     11047      3683  TIP3      OH2            -2.9849987078      -17.8961963765        1.7459558414  W2        3683            0.0000000000
     11048      3683  TIP3      H1             -3.1667987078      -16.9803063765        1.5354458414  W2        3683            0.0000000000
     11049      3683  TIP3      H2             -2.8082187078      -18.3064863765        0.8994158414  W2        3683            0.0000000000
     11050      3684  TIP3      OH2           -15.6798287078      -19.2090963765       -0.7889941586  W2        3684            0.0000000000
     11051      3684  TIP3      H1            -15.6982287078      -19.6345863765        0.0682358414  W2        3684            0.0000000000
     11052      3684  TIP3      H2            -14.8750387078      -19.5275963765       -1.1977741586  W2        3684            0.0000000000
     11053      3685  TIP3      OH2           -13.5385187078      -20.4992263765       -2.1340041586  W2        3685            0.0000000000
     11054      3685  TIP3      H1            -13.7574487078      -21.4154863765       -1.9644041586  W2        3685            0.0000000000
     11055      3685  TIP3      H2            -12.7142987078      -20.3591863765       -1.6678641586  W2        3685            0.0000000000
     11056      3686  TIP3      OH2           -11.0012687078      -20.0292963765       -1.2852041586  W2        3686            0.0000000000
     11057      3686  TIP3      H1            -10.7886987078      -20.9173963765       -1.5721141586  W2        3686            0.0000000000
     11058      3686  TIP3      H2            -10.9367587078      -20.0635263765       -0.3308041586  W2        3686            0.0000000000
     11059      3687  TIP3      OH2            -7.4928987078      -34.3652363765       -2.1408741586  W2        3687            0.0000000000
     11060      3687  TIP3      H1             -8.1672187078      -34.9946763765       -1.8852941586  W2        3687            0.0000000000
     11061      3687  TIP3      H2             -6.9289787078      -34.8493463765       -2.7440841586  W2        3687            0.0000000000
     11062      3688  TIP3      OH2            -2.3501787078      -36.2578363765       -2.0281641586  W2        3688            0.0000000000
     11063      3688  TIP3      H1             -1.7464187078      -35.7102963765       -2.5300641586  W2        3688            0.0000000000
     11064      3688  TIP3      H2             -3.2199787078      -35.9387963765       -2.2687541586  W2        3688            0.0000000000
     11065      3689  TIP3      OH2            -0.6231387078      -35.1189663765       -3.6950741586  W2        3689            0.0000000000
     11066      3689  TIP3      H1             -0.0113887078      -35.6333963765       -4.2217141586  W2        3689            0.0000000000
     11067      3689  TIP3      H2             -0.2407987078      -34.2417563765       -3.6716341586  W2        3689            0.0000000000
     11068      3690  TIP3      OH2           -15.1661487078      -35.7312063765       -4.3188841586  W2        3690            0.0000000000
     11069      3690  TIP3      H1            -15.9431687078      -35.9657163765       -4.8262941586  W2        3690            0.0000000000
     11070      3690  TIP3      H2            -14.6357887078      -36.5279963765       -4.3100841586  W2        3690            0.0000000000
     11071      3691  TIP3      OH2           -16.3298087078      -35.9333963765       -8.5152741586  W2        3691            0.0000000000
     11072      3691  TIP3      H1            -15.8907387078      -35.3223463765       -9.1069241586  W2        3691            0.0000000000
     11073      3691  TIP3      H2            -16.9635687078      -35.3949863765       -8.0412741586  W2        3691            0.0000000000
     11074      3692  TIP3      OH2           -10.5868887078      -35.8044963765       -4.5055741586  W2        3692            0.0000000000
     11075      3692  TIP3      H1             -9.7125487078      -35.4160663765       -4.5351441586  W2        3692            0.0000000000
     11076      3692  TIP3      H2            -10.7228087078      -36.0197163765       -3.5828541586  W2        3692            0.0000000000
     11077      3693  TIP3      OH2            -5.0300487078      -35.7745163765       -2.8564041586  W2        3693            0.0000000000
     11078      3693  TIP3      H1             -4.9538887078      -35.6793563765       -3.8058041586  W2        3693            0.0000000000
     11079      3693  TIP3      H2             -5.3051287078      -36.6822263765       -2.7274941586  W2        3693            0.0000000000
     11080      3694  TIP3      OH2            -3.6767887078      -35.7487363765       -7.1639041586  W2        3694            0.0000000000
     11081      3694  TIP3      H1             -4.3796787078      -35.1338163765       -7.3737641586  W2        3694            0.0000000000
     11082      3694  TIP3      H2             -4.1216487078      -36.5860663765       -7.0328141586  W2        3694            0.0000000000
     11083      3695  TIP3      OH2           -16.4288587078      -19.9851763765       -7.6177641586  W2        3695            0.0000000000
     11084      3695  TIP3      H1            -17.1138687078      -20.0232863765       -8.2852541586  W2        3695            0.0000000000
     11085      3695  TIP3      H2            -16.4251387078      -19.0724163765       -7.3295541586  W2        3695            0.0000000000
     11086      3696  TIP3      OH2           -14.4688987078      -34.0172463765      -10.0728641586  W2        3696            0.0000000000
     11087      3696  TIP3      H1            -13.9775587078      -34.6470063765      -10.6003141586  W2        3696            0.0000000000
     11088      3696  TIP3      H2            -13.8452687078      -33.7213063765       -9.4097441586  W2        3696            0.0000000000
     11089      3697  TIP3      OH2            -9.4428887078      -33.7240963765       -7.6158141586  W2        3697            0.0000000000
     11090      3697  TIP3      H1             -9.2647587078      -34.3707763765       -6.9329541586  W2        3697            0.0000000000
     11091      3697  TIP3      H2             -9.4962687078      -32.8903263765       -7.1487041586  W2        3697            0.0000000000
     11092      3698  TIP3      OH2            -7.5645087078      -18.7756863765       -9.2201441586  W2        3698            0.0000000000
     11093      3698  TIP3      H1             -6.6984887078      -18.4089463765       -9.3983241586  W2        3698            0.0000000000
     11094      3698  TIP3      H2             -7.8112287078      -19.2148863765      -10.0340641586  W2        3698            0.0000000000
     11095      3699  TIP3      OH2            -0.8555487078      -19.2126563765       -6.5410341586  W2        3699            0.0000000000
     11096      3699  TIP3      H1             -1.0498387078      -19.9604463765       -7.1060741586  W2        3699            0.0000000000
     11097      3699  TIP3      H2             -0.8945387078      -18.4546463765       -7.1242441586  W2        3699            0.0000000000
     11098      3700  TIP3      OH2           -15.2083487078      -35.2170163765        5.1987358414  W2        3700            0.0000000000
     11099      3700  TIP3      H1            -15.5745287078      -35.9827563765        5.6412058414  W2        3700            0.0000000000
     11100      3700  TIP3      H2            -14.2954987078      -35.1879963765        5.4852458414  W2        3700            0.0000000000
     11101      3701  TIP3      OH2           -13.2352687078      -35.8665763765        6.7344458414  W2        3701            0.0000000000
     11102      3701  TIP3      H1            -12.3369087078      -36.1405563765        6.5497858414  W2        3701            0.0000000000
     11103      3701  TIP3      H2            -13.6219587078      -36.6089763765        7.1987058414  W2        3701            0.0000000000
     11104      3702  TIP3      OH2           -14.6107387078      -19.0650963765      -10.5925541586  W2        3702            0.0000000000
     11105      3702  TIP3      H1            -14.8782787078      -18.7788063765       -9.7192441586  W2        3702            0.0000000000
     11106      3702  TIP3      H2            -13.8394787078      -19.6111763765      -10.4403041586  W2        3702            0.0000000000
     11107      3703  TIP3      OH2            -4.8140387078      -36.5340463765        6.9167258414  W2        3703            0.0000000000
     11108      3703  TIP3      H1             -4.7373187078      -36.9599763765        7.7704958414  W2        3703            0.0000000000
     11109      3703  TIP3      H2             -3.9203787078      -36.5205763765        6.5740758414  W2        3703            0.0000000000
     11110      3704  TIP3      OH2            -1.6379287078      -20.4614163765        5.6091458414  W2        3704            0.0000000000
     11111      3704  TIP3      H1             -2.4197387078      -20.6476163765        5.0892058414  W2        3704            0.0000000000
     11112      3704  TIP3      H2             -1.7099387078      -19.5319863765        5.8263958414  W2        3704            0.0000000000
     11113      3705  TIP3      OH2            12.7681112922      -26.5749763765       -4.3601341586  W2        3705            0.0000000000
     11114      3705  TIP3      H1             12.8572212922      -25.6311563765       -4.4924241586  W2        3705            0.0000000000
     11115      3705  TIP3      H2             12.1298712922      -26.8503363765       -5.0181941586  W2        3705            0.0000000000
     11116      3706  TIP3      OH2            11.7012412922      -27.3199063765       -0.9413141586  W2        3706            0.0000000000
     11117      3706  TIP3      H1             11.6629912922      -27.9662763765       -0.2363541586  W2        3706            0.0000000000
     11118      3706  TIP3      H2             11.3788912922      -27.7864663765       -1.7124441586  W2        3706            0.0000000000
     11119      3707  TIP3      OH2             4.0697412922      -27.7056963765        0.6516758414  W2        3707            0.0000000000
     11120      3707  TIP3      H1              4.1109512922      -28.3313663765        1.3749158414  W2        3707            0.0000000000
     11121      3707  TIP3      H2              4.7725112922      -27.0818363765        0.8337158414  W2        3707            0.0000000000
     11122      3708  TIP3      OH2            15.4072612922      -24.3808663765       -2.6398041586  W2        3708            0.0000000000
     11123      3708  TIP3      H1             14.9665312922      -25.1012663765       -2.1892441586  W2        3708            0.0000000000
     11124      3708  TIP3      H2             15.3942312922      -23.6601463765       -2.0100341586  W2        3708            0.0000000000
     11125      3709  TIP3      OH2             4.9930512922      -23.2558063765       -0.8134141586  W2        3709            0.0000000000
     11126      3709  TIP3      H1              4.6235712922      -24.0577563765       -1.1829841586  W2        3709            0.0000000000
     11127      3709  TIP3      H2              5.9341612922      -23.4243163765       -0.7670741586  W2        3709            0.0000000000
     11128      3710  TIP3      OH2             1.6031012922      -29.5955463765       -5.4205341586  W2        3710            0.0000000000
     11129      3710  TIP3      H1              1.1554412922      -28.7496763765       -5.4388841586  W2        3710            0.0000000000
     11130      3710  TIP3      H2              1.0422212922      -30.1751263765       -5.9360241586  W2        3710            0.0000000000
     11131      3711  TIP3      OH2             2.3137112922      -27.4335863765       -3.2947341586  W2        3711            0.0000000000
     11132      3711  TIP3      H1              2.5270612922      -28.2034263765       -2.7674341586  W2        3711            0.0000000000
     11133      3711  TIP3      H2              3.0514712922      -27.3439163765       -3.8979741586  W2        3711            0.0000000000
     11134      3712  TIP3      OH2            12.5188112922      -19.2766963765       -2.4277641586  W2        3712            0.0000000000
     11135      3712  TIP3      H1             13.1384512922      -19.9532263765       -2.7008441586  W2        3712            0.0000000000
     11136      3712  TIP3      H2             12.3105512922      -19.4946163765       -1.5192741586  W2        3712            0.0000000000
     11137      3713  TIP3      OH2            10.0906812922      -24.8877663765       -0.5352141586  W2        3713            0.0000000000
     11138      3713  TIP3      H1             10.3944712922      -25.5736263765       -1.1298041586  W2        3713            0.0000000000
     11139      3713  TIP3      H2             10.8120812922      -24.7688963765        0.0825858414  W2        3713            0.0000000000
     11140      3714  TIP3      OH2            18.7536612922      -33.2862363765        0.3254058414  W2        3714            0.0000000000
     11141      3714  TIP3      H1             18.8028812922      -32.6761163765        1.0613158414  W2        3714            0.0000000000
     11142      3714  TIP3      H2             19.1791712922      -32.8251463765       -0.3974841586  W2        3714            0.0000000000
     11143      3715  TIP3      OH2            13.2313812922      -30.4935263765       -0.2077341586  W2        3715            0.0000000000
     11144      3715  TIP3      H1             13.3739712922      -31.4398263765       -0.1875741586  W2        3715            0.0000000000
     11145      3715  TIP3      H2             13.1252812922      -30.2865463765       -1.1362441586  W2        3715            0.0000000000
     11146      3716  TIP3      OH2             6.3862112922      -32.3918863765       -2.9352541586  W2        3716            0.0000000000
     11147      3716  TIP3      H1              6.4293212922      -31.5320363765       -3.3536241586  W2        3716            0.0000000000
     11148      3716  TIP3      H2              5.9286212922      -32.9444163765       -3.5689341586  W2        3716            0.0000000000
     11149      3717  TIP3      OH2            14.1084812922      -32.2613263765       -4.5344241586  W2        3717            0.0000000000
     11150      3717  TIP3      H1             14.7549112922      -32.5900063765       -3.9096641586  W2        3717            0.0000000000
     11151      3717  TIP3      H2             14.6184212922      -31.7434263765       -5.1572841586  W2        3717            0.0000000000
     11152      3718  TIP3      OH2             3.0063612922      -29.9953063765       -2.1731141586  W2        3718            0.0000000000
     11153      3718  TIP3      H1              3.6600212922      -30.5451363765       -1.7411041586  W2        3718            0.0000000000
     11154      3718  TIP3      H2              3.0302912922      -30.2694063765       -3.0899141586  W2        3718            0.0000000000
     11155      3719  TIP3      OH2             8.1628112922      -28.4451763765       -2.9579641586  W2        3719            0.0000000000
     11156      3719  TIP3      H1              8.7789112922      -28.9716363765       -2.4485641586  W2        3719            0.0000000000
     11157      3719  TIP3      H2              7.5766912922      -29.0853063765       -3.3616041586  W2        3719            0.0000000000
     11158      3720  TIP3      OH2            19.1451212922      -31.8083163765        2.5613858414  W2        3720            0.0000000000
     11159      3720  TIP3      H1             18.4565812922      -31.1502463765        2.4660458414  W2        3720            0.0000000000
     11160      3720  TIP3      H2             19.1605812922      -32.0055263765        3.4979258414  W2        3720            0.0000000000
     11161      3721  TIP3      OH2             5.1964012922      -33.4740463765        1.1388258414  W2        3721            0.0000000000
     11162      3721  TIP3      H1              4.9775712922      -32.9439863765        0.3724258414  W2        3721            0.0000000000
     11163      3721  TIP3      H2              4.5284912922      -33.2474963765        1.7859658414  W2        3721            0.0000000000
     11164      3722  TIP3      OH2            12.5653812922      -23.9739363765       -5.3172641586  W2        3722            0.0000000000
     11165      3722  TIP3      H1             12.2698912922      -24.2967063765       -6.1685741586  W2        3722            0.0000000000
     11166      3722  TIP3      H2             12.2411612922      -23.0742663765       -5.2760041586  W2        3722            0.0000000000
     11167      3723  TIP3      OH2             7.7655412922      -25.7984763765        1.4261958414  W2        3723            0.0000000000
     11168      3723  TIP3      H1              7.0254512922      -25.2003263765        1.5297158414  W2        3723            0.0000000000
     11169      3723  TIP3      H2              8.4794912922      -25.2445163765        1.1105558414  W2        3723            0.0000000000
     11170      3724  TIP3      OH2            15.8723212922      -32.9703963765       -2.5538341586  W2        3724            0.0000000000
     11171      3724  TIP3      H1             15.6571212922      -33.7360563765       -2.0212341586  W2        3724            0.0000000000
     11172      3724  TIP3      H2             16.5280612922      -32.4979363765       -2.0409841586  W2        3724            0.0000000000
     11173      3725  TIP3      OH2             4.7901312922      -31.5818663765       -0.9089541586  W2        3725            0.0000000000
     11174      3725  TIP3      H1              5.4037612922      -30.9491063765       -0.5357141586  W2        3725            0.0000000000
     11175      3725  TIP3      H2              5.3022012922      -32.0543663765       -1.5652641586  W2        3725            0.0000000000
     11176      3726  TIP3      OH2             6.1729712922      -23.8341763765        2.2133458414  W2        3726            0.0000000000
     11177      3726  TIP3      H1              6.1677312922      -22.9548263765        1.8352758414  W2        3726            0.0000000000
     11178      3726  TIP3      H2              5.3193812922      -23.9177663765        2.6383358414  W2        3726            0.0000000000
     11179      3727  TIP3      OH2             2.2940612922      -24.1633863765       -7.0047241586  W2        3727            0.0000000000
     11180      3727  TIP3      H1              2.0221512922      -23.9342863765       -7.8934341586  W2        3727            0.0000000000
     11181      3727  TIP3      H2              2.3396312922      -23.3255063765       -6.5441941586  W2        3727            0.0000000000
     11182      3728  TIP3      OH2            15.9190312922      -22.5417963765       -0.2918741586  W2        3728            0.0000000000
     11183      3728  TIP3      H1             14.9774012922      -22.4834063765       -0.1301841586  W2        3728            0.0000000000
     11184      3728  TIP3      H2             16.1956412922      -21.6357463765       -0.4289041586  W2        3728            0.0000000000
     11185      3729  TIP3      OH2            16.2197312922      -34.2552663765        1.1255158414  W2        3729            0.0000000000
     11186      3729  TIP3      H1             15.4836512922      -33.6445563765        1.0876458414  W2        3729            0.0000000000
     11187      3729  TIP3      H2             16.9031312922      -33.8403663765        0.5991558414  W2        3729            0.0000000000
     11188      3730  TIP3      OH2             9.2228712922      -36.1685363765       -1.4086841586  W2        3730            0.0000000000
     11189      3730  TIP3      H1              9.1052912922      -37.1169363765       -1.4628541586  W2        3730            0.0000000000
     11190      3730  TIP3      H2              8.3678812922      -35.8359263765       -1.1355741586  W2        3730            0.0000000000
     11191      3731  TIP3      OH2            14.1711512922      -20.7604463765       -3.6667141586  W2        3731            0.0000000000
     11192      3731  TIP3      H1             14.5963812922      -21.4676563765       -4.1517541586  W2        3731            0.0000000000
     11193      3731  TIP3      H2             14.4881512922      -19.9591763765       -4.0834941586  W2        3731            0.0000000000
     11194      3732  TIP3      OH2            15.3308012922      -22.8595963765       -5.1580541586  W2        3732            0.0000000000
     11195      3732  TIP3      H1             15.0732812922      -23.5495863765       -5.7694641586  W2        3732            0.0000000000
     11196      3732  TIP3      H2             15.4018812922      -23.3024763765       -4.3124641586  W2        3732            0.0000000000
     11197      3733  TIP3      OH2            17.0168212922      -24.2929263765        3.3192958414  W2        3733            0.0000000000
     11198      3733  TIP3      H1             17.1564512922      -24.8846763765        2.5799958414  W2        3733            0.0000000000
     11199      3733  TIP3      H2             17.1841012922      -23.4203363765        2.9631758414  W2        3733            0.0000000000
     11200      3734  TIP3      OH2            11.4893612922      -27.3309763765       -6.9081041586  W2        3734            0.0000000000
     11201      3734  TIP3      H1             10.7779112922      -26.7960063765       -7.2600541586  W2        3734            0.0000000000
     11202      3734  TIP3      H2             12.1803212922      -27.2757663765       -7.5682141586  W2        3734            0.0000000000
     11203      3735  TIP3      OH2            11.5432812922      -28.8735463765       -9.8696041586  W2        3735            0.0000000000
     11204      3735  TIP3      H1             12.2442712922      -28.8508563765       -9.2182041586  W2        3735            0.0000000000
     11205      3735  TIP3      H2             11.8455712922      -29.5015763765      -10.5256741586  W2        3735            0.0000000000
     11206      3736  TIP3      OH2            18.8587512922      -27.9531263765        1.3853358414  W2        3736            0.0000000000
     11207      3736  TIP3      H1             18.2061612922      -27.2585663765        1.4744258414  W2        3736            0.0000000000
     11208      3736  TIP3      H2             19.3237812922      -27.7430363765        0.5754958414  W2        3736            0.0000000000
     11209      3737  TIP3      OH2            14.8951312922      -27.1216463765       -5.9565141586  W2        3737            0.0000000000
     11210      3737  TIP3      H1             14.1632312922      -26.8932763765       -5.3834541586  W2        3737            0.0000000000
     11211      3737  TIP3      H2             15.3423512922      -27.8353763765       -5.5017641586  W2        3737            0.0000000000
     11212      3738  TIP3      OH2            14.7924812922      -28.9473863765        3.1111858414  W2        3738            0.0000000000
     11213      3738  TIP3      H1             14.8723912922      -28.1839463765        3.6830358414  W2        3738            0.0000000000
     11214      3738  TIP3      H2             14.1912512922      -28.6681463765        2.4206958414  W2        3738            0.0000000000
     11215      3739  TIP3      OH2             6.5405012922      -26.4910263765       -4.0740141586  W2        3739            0.0000000000
     11216      3739  TIP3      H1              6.2100212922      -26.8616863765       -4.8923141586  W2        3739            0.0000000000
     11217      3739  TIP3      H2              7.1289112922      -27.1616263765       -3.7271841586  W2        3739            0.0000000000
     11218      3740  TIP3      OH2             7.9072512922      -23.0629663765       -1.3927941586  W2        3740            0.0000000000
     11219      3740  TIP3      H1              7.8123812922      -23.6416563765       -2.1493341586  W2        3740            0.0000000000
     11220      3740  TIP3      H2              8.6366112922      -23.4343963765       -0.8965141586  W2        3740            0.0000000000
     11221      3741  TIP3      OH2             6.9070512922      -27.7224663765       -0.4405141586  W2        3741            0.0000000000
     11222      3741  TIP3      H1              7.4723012922      -27.6010463765       -1.2033941586  W2        3741            0.0000000000
     11223      3741  TIP3      H2              7.2259412922      -27.0849663765        0.1983358414  W2        3741            0.0000000000
     11224      3742  TIP3      OH2            13.2162712922      -22.2192763765        0.2935358414  W2        3742            0.0000000000
     11225      3742  TIP3      H1             12.9759312922      -21.5569663765        0.9414558414  W2        3742            0.0000000000
     11226      3742  TIP3      H2             13.0180912922      -23.0537563765        0.7184958414  W2        3742            0.0000000000
     11227      3743  TIP3      OH2             7.7871212922      -23.3231963765        4.2766758414  W2        3743            0.0000000000
     11228      3743  TIP3      H1              7.4758712922      -22.5408763765        4.7319958414  W2        3743            0.0000000000
     11229      3743  TIP3      H2              7.1371412922      -23.4762863765        3.5908758414  W2        3743            0.0000000000
     11230      3744  TIP3      OH2            13.7660812922      -27.9593563765       -8.2713941586  W2        3744            0.0000000000
     11231      3744  TIP3      H1             14.3456312922      -27.8093263765       -7.5245041586  W2        3744            0.0000000000
     11232      3744  TIP3      H2             14.1800812922      -27.4886163765       -8.9947541586  W2        3744            0.0000000000
     11233      3745  TIP3      OH2             4.7071112922      -27.1250863765        3.5052458414  W2        3745            0.0000000000
     11234      3745  TIP3      H1              4.7774312922      -26.4744063765        4.2037458414  W2        3745            0.0000000000
     11235      3745  TIP3      H2              3.8163312922      -27.0223363765        3.1703358414  W2        3745            0.0000000000
     11236      3746  TIP3      OH2            11.4925712922      -21.2225063765       -4.8360841586  W2        3746            0.0000000000
     11237      3746  TIP3      H1             11.9663312922      -20.9268763765       -4.0586641586  W2        3746            0.0000000000
     11238      3746  TIP3      H2             10.9295012922      -20.4843463765       -5.0691241586  W2        3746            0.0000000000
     11239      3747  TIP3      OH2             6.0267112922      -21.2516963765        5.0400558414  W2        3747            0.0000000000
     11240      3747  TIP3      H1              6.0342412922      -21.3877263765        4.0926058414  W2        3747            0.0000000000
     11241      3747  TIP3      H2              5.1107512922      -21.3688863765        5.2920558414  W2        3747            0.0000000000
     11242      3748  TIP3      OH2            17.4649212922      -36.2093163765       -8.4584241586  W2        3748            0.0000000000
     11243      3748  TIP3      H1             16.5649912922      -36.0704163765       -8.1633641586  W2        3748            0.0000000000
     11244      3748  TIP3      H2             17.7167612922      -35.3778563765       -8.8602541586  W2        3748            0.0000000000
     11245      3749  TIP3      OH2             5.5307712922      -27.4215963765       -6.4847341586  W2        3749            0.0000000000
     11246      3749  TIP3      H1              5.2389012922      -26.6534263765       -6.9756041586  W2        3749            0.0000000000
     11247      3749  TIP3      H2              4.8562912922      -28.0809763765       -6.6475941586  W2        3749            0.0000000000
     11248      3750  TIP3      OH2            18.6540612922      -21.8430763765      -10.0820341586  W2        3750            0.0000000000
     11249      3750  TIP3      H1             18.7274112922      -20.9040563765       -9.9115041586  W2        3750            0.0000000000
     11250      3750  TIP3      H2             19.5595712922      -22.1482163765      -10.1383041586  W2        3750            0.0000000000
     11251      3751  TIP3      OH2             1.6237812922      -25.0586763765        2.3302458414  W2        3751            0.0000000000
     11252      3751  TIP3      H1              1.1226212922      -25.0867363765        1.5152158414  W2        3751            0.0000000000
     11253      3751  TIP3      H2              1.6291512922      -25.9643563765        2.6399758414  W2        3751            0.0000000000
     11254      3752  TIP3      OH2             1.3740512922      -22.2782963765       -0.7857341586  W2        3752            0.0000000000
     11255      3752  TIP3      H1              2.3201112922      -22.4225963765       -0.8047841586  W2        3752            0.0000000000
     11256      3752  TIP3      H2              1.2616812922      -21.4940163765       -0.2486141586  W2        3752            0.0000000000
     11257      3753  TIP3      OH2            19.5719012922      -21.6123263765        4.8966358414  W2        3753            0.0000000000
     11258      3753  TIP3      H1             19.5225812922      -22.5675163765        4.8593958414  W2        3753            0.0000000000
     11259      3753  TIP3      H2             18.7451312922      -21.3447963765        5.2980158414  W2        3753            0.0000000000
     11260      3754  TIP3      OH2            10.5503012922      -22.0384063765        3.7727758414  W2        3754            0.0000000000
     11261      3754  TIP3      H1             10.6377612922      -21.2119463765        4.2476858414  W2        3754            0.0000000000
     11262      3754  TIP3      H2              9.6868112922      -22.3680263765        4.0217058414  W2        3754            0.0000000000
     11263      3755  TIP3      OH2            10.9648812922      -18.2660363765       -6.4211641586  W2        3755            0.0000000000
     11264      3755  TIP3      H1             10.8894812922      -18.3873163765       -7.3676441586  W2        3755            0.0000000000
     11265      3755  TIP3      H2             10.9977512922      -17.3167663765       -6.3027041586  W2        3755            0.0000000000
     11266      3756  TIP3      OH2             4.6182612922      -19.4773363765       -4.6402641586  W2        3756            0.0000000000
     11267      3756  TIP3      H1              4.7703012922      -19.8252963765       -3.7616141586  W2        3756            0.0000000000
     11268      3756  TIP3      H2              3.7673012922      -19.8336063765       -4.8955441586  W2        3756            0.0000000000
     11269      3757  TIP3      OH2            14.0664812922      -19.1120163765       -9.4189241586  W2        3757            0.0000000000
     11270      3757  TIP3      H1             14.4413212922      -19.8564063765       -9.8896641586  W2        3757            0.0000000000
     11271      3757  TIP3      H2             14.0708512922      -19.3819563765       -8.5005941586  W2        3757            0.0000000000
     11272      3758  TIP3      OH2            13.7352912922      -19.1863063765       -6.6697041586  W2        3758            0.0000000000
     11273      3758  TIP3      H1             12.8002712922      -19.0861163765       -6.4910041586  W2        3758            0.0000000000
     11274      3758  TIP3      H2             14.0154812922      -19.8957063765       -6.0913841586  W2        3758            0.0000000000
     11275      3759  TIP3      OH2            16.7238812922      -30.1190763765        5.3768558414  W2        3759            0.0000000000
     11276      3759  TIP3      H1             16.3165612922      -29.6385163765        4.6561858414  W2        3759            0.0000000000
     11277      3759  TIP3      H2             16.7644512922      -31.0244763765        5.0689358414  W2        3759            0.0000000000
     11278      3760  TIP3      OH2             3.8728312922      -23.7351363765        3.3735258414  W2        3760            0.0000000000
     11279      3760  TIP3      H1              4.0889612922      -24.0965763765        4.2331058414  W2        3760            0.0000000000
     11280      3760  TIP3      H2              3.0173012922      -24.1097563765        3.1638758414  W2        3760            0.0000000000
     11281      3761  TIP3      OH2             6.4916312922      -35.2650863765       -0.6310541586  W2        3761            0.0000000000
     11282      3761  TIP3      H1              5.6300012922      -35.3522663765       -1.0387641586  W2        3761            0.0000000000
     11283      3761  TIP3      H2              6.4692012922      -34.4090763765       -0.2032941586  W2        3761            0.0000000000
     11284      3762  TIP3      OH2            11.1544112922      -35.5430463765        2.7436458414  W2        3762            0.0000000000
     11285      3762  TIP3      H1             11.5747212922      -35.9583363765        3.4967058414  W2        3762            0.0000000000
     11286      3762  TIP3      H2             10.2213712922      -35.7217163765        2.8608458414  W2        3762            0.0000000000
     11287      3763  TIP3      OH2            14.4809012922      -31.7875263765        3.5970958414  W2        3763            0.0000000000
     11288      3763  TIP3      H1             13.9668512922      -31.9133063765        4.3946958414  W2        3763            0.0000000000
     11289      3763  TIP3      H2             14.3253712922      -30.8752163765        3.3527158414  W2        3763            0.0000000000
     11290      3764  TIP3      OH2            15.2433912922      -26.9265263765      -10.6416041586  W2        3764            0.0000000000
     11291      3764  TIP3      H1             15.2854712922      -27.1491363765      -11.5716041586  W2        3764            0.0000000000
     11292      3764  TIP3      H2             16.0926012922      -26.5278163765      -10.4516141586  W2        3764            0.0000000000
     11293      3765  TIP3      OH2            10.8161412922      -33.0507063765       -9.9712741586  W2        3765            0.0000000000
     11294      3765  TIP3      H1             10.5626212922      -33.0315463765       -9.0484641586  W2        3765            0.0000000000
     11295      3765  TIP3      H2             10.5593512922      -33.9221663765      -10.2726541586  W2        3765            0.0000000000
     11296      3766  TIP3      OH2             6.5826412922      -30.2996363765        0.4639658414  W2        3766            0.0000000000
     11297      3766  TIP3      H1              5.9408512922      -30.3399063765        1.1729758414  W2        3766            0.0000000000
     11298      3766  TIP3      H2              6.6198412922      -29.3731663765        0.2262658414  W2        3766            0.0000000000
     11299      3767  TIP3      OH2             6.5795512922      -30.0786263765       -4.6240341586  W2        3767            0.0000000000
     11300      3767  TIP3      H1              5.6868412922      -30.4190163765       -4.6826541586  W2        3767            0.0000000000
     11301      3767  TIP3      H2              7.0302112922      -30.4555363765       -5.3797141586  W2        3767            0.0000000000
     11302      3768  TIP3      OH2            12.1151012922      -29.6625963765       -5.8069541586  W2        3768            0.0000000000
     11303      3768  TIP3      H1             11.7061312922      -28.8477363765       -6.0984741586  W2        3768            0.0000000000
     11304      3768  TIP3      H2             12.8357212922      -29.8025863765       -6.4212441586  W2        3768            0.0000000000
     11305      3769  TIP3      OH2            11.2172612922      -29.4869563765        5.6811158414  W2        3769            0.0000000000
     11306      3769  TIP3      H1             10.6546412922      -30.1917963765        6.0018958414  W2        3769            0.0000000000
     11307      3769  TIP3      H2             12.0436012922      -29.6077663765        6.1488758414  W2        3769            0.0000000000
     11308      3770  TIP3      OH2            13.1198712922      -30.2165563765       -2.9929841586  W2        3770            0.0000000000
     11309      3770  TIP3      H1             12.9243212922      -29.6108763765       -3.7079241586  W2        3770            0.0000000000
     11310      3770  TIP3      H2             13.3011312922      -31.0500363765       -3.4273541586  W2        3770            0.0000000000
     11311      3771  TIP3      OH2             4.3326912922      -29.9792863765        2.3311658414  W2        3771            0.0000000000
     11312      3771  TIP3      H1              4.2946312922      -29.5791263765        3.1998758414  W2        3771            0.0000000000
     11313      3771  TIP3      H2              3.8418012922      -30.7960463765        2.4214558414  W2        3771            0.0000000000
     11314      3772  TIP3      OH2             7.6984312922      -32.6050563765      -10.8702341586  W2        3772            0.0000000000
     11315      3772  TIP3      H1              7.2675012922      -33.0500463765      -10.1404941586  W2        3772            0.0000000000
     11316      3772  TIP3      H2              6.9803012922      -32.2334263765      -11.3824841586  W2        3772            0.0000000000
     11317      3773  TIP3      OH2             0.9407712922      -32.8631063765       -3.8183641586  W2        3773            0.0000000000
     11318      3773  TIP3      H1              1.5715412922      -32.8918963765       -3.0989741586  W2        3773            0.0000000000
     11319      3773  TIP3      H2              1.3902012922      -33.2882363765       -4.5487741586  W2        3773            0.0000000000
     11320      3774  TIP3      OH2             2.2149812922      -32.1169063765       -8.3943241586  W2        3774            0.0000000000
     11321      3774  TIP3      H1              2.6891512922      -31.5259163765       -8.9792341586  W2        3774            0.0000000000
     11322      3774  TIP3      H2              1.4976212922      -31.5866163765       -8.0473141586  W2        3774            0.0000000000
     11323      3775  TIP3      OH2            12.3837912922      -28.5784263765        1.6782558414  W2        3775            0.0000000000
     11324      3775  TIP3      H1             12.7072712922      -29.2094563765        1.0353058414  W2        3775            0.0000000000
     11325      3775  TIP3      H2             11.9437212922      -29.1132063765        2.3389958414  W2        3775            0.0000000000
     11326      3776  TIP3      OH2             9.1610812922      -32.6508763765       -3.5376241586  W2        3776            0.0000000000
     11327      3776  TIP3      H1              8.2501912922      -32.5941963765       -3.2490241586  W2        3776            0.0000000000
     11328      3776  TIP3      H2              9.6663712922      -32.7113263765       -2.7269041586  W2        3776            0.0000000000
     11329      3777  TIP3      OH2             3.9894212922      -31.0222463765       -4.7108641586  W2        3777            0.0000000000
     11330      3777  TIP3      H1              3.1002212922      -30.9226963765       -5.0509041586  W2        3777            0.0000000000
     11331      3777  TIP3      H2              4.2859112922      -31.8639463765       -5.0570741586  W2        3777            0.0000000000
     11332      3778  TIP3      OH2             7.6426012922      -31.0219863765       -7.0544041586  W2        3778            0.0000000000
     11333      3778  TIP3      H1              8.5741512922      -30.8929863765       -6.8760941586  W2        3778            0.0000000000
     11334      3778  TIP3      H2              7.4276312922      -30.3525563765       -7.7039341586  W2        3778            0.0000000000
     11335      3779  TIP3      OH2            13.5662712922      -33.4162463765       -0.2734441586  W2        3779            0.0000000000
     11336      3779  TIP3      H1             12.8894312922      -33.2849363765        0.3905258414  W2        3779            0.0000000000
     11337      3779  TIP3      H2             13.0807612922      -33.5712963765       -1.0836741586  W2        3779            0.0000000000
     11338      3780  TIP3      OH2             6.3166212922      -29.8277663765       -9.4877941586  W2        3780            0.0000000000
     11339      3780  TIP3      H1              5.7741312922      -30.2073863765      -10.1790341586  W2        3780            0.0000000000
     11340      3780  TIP3      H2              7.1501112922      -29.6332963765       -9.9163841586  W2        3780            0.0000000000
     11341      3781  TIP3      OH2            16.8537812922      -17.7447063765        6.0033158414  W2        3781            0.0000000000
     11342      3781  TIP3      H1             17.0536512922      -17.3205163765        5.1688458414  W2        3781            0.0000000000
     11343      3781  TIP3      H2             17.5091512922      -17.4008863765        6.6103558414  W2        3781            0.0000000000
     11344      3782  TIP3      OH2             4.4517612922      -25.2705763765        5.6113658414  W2        3782            0.0000000000
     11345      3782  TIP3      H1              5.1840012922      -25.0159863765        6.1728158414  W2        3782            0.0000000000
     11346      3782  TIP3      H2              3.6716312922      -25.0660363765        6.1269058414  W2        3782            0.0000000000
     11347      3783  TIP3      OH2            10.4810512922      -29.8635763765       -1.6506641586  W2        3783            0.0000000000
     11348      3783  TIP3      H1             11.0453912922      -30.4099163765       -2.1977041586  W2        3783            0.0000000000
     11349      3783  TIP3      H2             10.3333912922      -30.3853863765       -0.8619041586  W2        3783            0.0000000000
     11350      3784  TIP3      OH2             5.4830212922      -33.7269663765       -5.2321841586  W2        3784            0.0000000000
     11351      3784  TIP3      H1              5.1659712922      -34.6294363765       -5.2676441586  W2        3784            0.0000000000
     11352      3784  TIP3      H2              6.2644312922      -33.7252263765       -5.7850241586  W2        3784            0.0000000000
     11353      3785  TIP3      OH2             9.1076412922      -31.4749663765        0.7633758414  W2        3785            0.0000000000
     11354      3785  TIP3      H1              8.2721712922      -31.0210163765        0.8736158414  W2        3785            0.0000000000
     11355      3785  TIP3      H2              9.6317012922      -31.1991163765        1.5153658414  W2        3785            0.0000000000
     11356      3786  TIP3      OH2             9.6519012922      -25.2621963765       -7.5519841586  W2        3786            0.0000000000
     11357      3786  TIP3      H1              8.9070012922      -25.7696663765       -7.8741941586  W2        3786            0.0000000000
     11358      3786  TIP3      H2              9.5176212922      -25.2133963765       -6.6055041586  W2        3786            0.0000000000
     11359      3787  TIP3      OH2            16.8017912922      -26.1293763765        1.2347758414  W2        3787            0.0000000000
     11360      3787  TIP3      H1             17.4436712922      -25.6727463765        0.6909958414  W2        3787            0.0000000000
     11361      3787  TIP3      H2             15.9714812922      -26.0161363765        0.7721858414  W2        3787            0.0000000000
     11362      3788  TIP3      OH2            13.5495812922      -32.4482063765       -9.3527241586  W2        3788            0.0000000000
     11363      3788  TIP3      H1             12.6110012922      -32.3366463765       -9.5038441586  W2        3788            0.0000000000
     11364      3788  TIP3      H2             13.8467912922      -31.5915163765       -9.0461541586  W2        3788            0.0000000000
     11365      3789  TIP3      OH2            11.1711112922      -25.0778663765        3.6849258414  W2        3789            0.0000000000
     11366      3789  TIP3      H1             10.8257212922      -25.4596263765        4.4918858414  W2        3789            0.0000000000
     11367      3789  TIP3      H2             10.9711212922      -24.1445063765        3.7562158414  W2        3789            0.0000000000
     11368      3790  TIP3      OH2            14.2679312922      -30.5809363765       -7.6919841586  W2        3790            0.0000000000
     11369      3790  TIP3      H1             15.1598312922      -30.7184363765       -7.3728641586  W2        3790            0.0000000000
     11370      3790  TIP3      H2             14.3242912922      -29.7903263765       -8.2286341586  W2        3790            0.0000000000
     11371      3791  TIP3      OH2             4.7767312922      -25.9671963765       -1.7821941586  W2        3791            0.0000000000
     11372      3791  TIP3      H1              5.5214512922      -25.9696263765       -2.3835441586  W2        3791            0.0000000000
     11373      3791  TIP3      H2              4.8543912922      -26.7908163765       -1.3006841586  W2        3791            0.0000000000
     11374      3792  TIP3      OH2            11.7773112922      -23.8037663765       -8.5265241586  W2        3792            0.0000000000
     11375      3792  TIP3      H1             11.4821512922      -22.9769763765       -8.1450441586  W2        3792            0.0000000000
     11376      3792  TIP3      H2             11.0743112922      -24.4230763765       -8.3303841586  W2        3792            0.0000000000
     11377      3793  TIP3      OH2             1.7847012922      -27.5065063765        3.5326558414  W2        3793            0.0000000000
     11378      3793  TIP3      H1              2.0075612922      -27.9245463765        4.3644058414  W2        3793            0.0000000000
     11379      3793  TIP3      H2              1.1827112922      -28.1190063765        3.1099358414  W2        3793            0.0000000000
     11380      3794  TIP3      OH2             8.8011912922      -27.9895163765        5.7456258414  W2        3794            0.0000000000
     11381      3794  TIP3      H1              8.5052712922      -28.1552163765        4.8505358414  W2        3794            0.0000000000
     11382      3794  TIP3      H2              9.7327112922      -28.2094863765        5.7350158414  W2        3794            0.0000000000
     11383      3795  TIP3      OH2            13.4214712922      -22.6163163765        3.6354258414  W2        3795            0.0000000000
     11384      3795  TIP3      H1             12.5209012922      -22.4330563765        3.3678158414  W2        3795            0.0000000000
     11385      3795  TIP3      H2             13.4555812922      -22.3573863765        4.5563058414  W2        3795            0.0000000000
     11386      3796  TIP3      OH2            19.1528012922      -30.3715263765       -7.9973141586  W2        3796            0.0000000000
     11387      3796  TIP3      H1             18.5984312922      -30.7677263765       -8.6695641586  W2        3796            0.0000000000
     11388      3796  TIP3      H2             19.2531612922      -29.4610063765       -8.2749841586  W2        3796            0.0000000000
     11389      3797  TIP3      OH2            19.1160012922      -24.5713563765        4.8398358414  W2        3797            0.0000000000
     11390      3797  TIP3      H1             18.2648512922      -24.3329763765        4.4724758414  W2        3797            0.0000000000
     11391      3797  TIP3      H2             19.7063412922      -24.5880363765        4.0865458414  W2        3797            0.0000000000
     11392      3798  TIP3      OH2            17.4479712922      -21.5854863765       -7.5321041586  W2        3798            0.0000000000
     11393      3798  TIP3      H1             17.0750812922      -22.4111063765       -7.2230441586  W2        3798            0.0000000000
     11394      3798  TIP3      H2             17.7253212922      -21.7685463765       -8.4297641586  W2        3798            0.0000000000
     11395      3799  TIP3      OH2            14.6083612922      -26.7775363765       -0.5109141586  W2        3799            0.0000000000
     11396      3799  TIP3      H1             13.6800512922      -27.0093463765       -0.5379841586  W2        3799            0.0000000000
     11397      3799  TIP3      H2             15.0594712922      -27.5545563765       -0.8410341586  W2        3799            0.0000000000
     11398      3800  TIP3      OH2             7.1516712922      -22.4493763765       -4.3780441586  W2        3800            0.0000000000
     11399      3800  TIP3      H1              7.6788912922      -21.6759363765       -4.5781641586  W2        3800            0.0000000000
     11400      3800  TIP3      H2              6.2715212922      -22.2244563765       -4.6796441586  W2        3800            0.0000000000
     11401      3801  TIP3      OH2             2.9064412922      -27.5869663765       -9.7908041586  W2        3801            0.0000000000
     11402      3801  TIP3      H1              3.5224312922      -26.9602463765       -9.4113241586  W2        3801            0.0000000000
     11403      3801  TIP3      H2              2.0447012922      -27.2709863765       -9.5191541586  W2        3801            0.0000000000
     11404      3802  TIP3      OH2             8.5789012922      -24.7863863765       -4.8016141586  W2        3802            0.0000000000
     11405      3802  TIP3      H1              8.3379012922      -23.8609463765       -4.7600841586  W2        3802            0.0000000000
     11406      3802  TIP3      H2              7.8382612922      -25.2452563765       -4.4052241586  W2        3802            0.0000000000
     11407      3803  TIP3      OH2             9.0935612922      -20.6370263765        1.5134958414  W2        3803            0.0000000000
     11408      3803  TIP3      H1              9.4560312922      -19.7824663765        1.2799358414  W2        3803            0.0000000000
     11409      3803  TIP3      H2              9.6250812922      -20.9288663765        2.2541258414  W2        3803            0.0000000000
     11410      3804  TIP3      OH2             7.2619812922      -19.7646263765       -5.2563941586  W2        3804            0.0000000000
     11411      3804  TIP3      H1              6.3120312922      -19.6588863765       -5.2050641586  W2        3804            0.0000000000
     11412      3804  TIP3      H2              7.6137912922      -18.9438863765       -4.9116441586  W2        3804            0.0000000000
     11413      3805  TIP3      OH2            12.6376412922      -24.5379563765        1.2140558414  W2        3805            0.0000000000
     11414      3805  TIP3      H1             12.2117712922      -24.7657863765        2.0404558414  W2        3805            0.0000000000
     11415      3805  TIP3      H2             13.2182212922      -25.2767763765        1.0315858414  W2        3805            0.0000000000
     11416      3806  TIP3      OH2            14.8405312922      -23.6089063765       -9.7120441586  W2        3806            0.0000000000
     11417      3806  TIP3      H1             15.1938412922      -23.9889263765       -8.9076941586  W2        3806            0.0000000000
     11418      3806  TIP3      H2             13.8918812922      -23.7024263765       -9.6251141586  W2        3806            0.0000000000
     11419      3807  TIP3      OH2            15.2960612922      -19.9860063765        3.6835358414  W2        3807            0.0000000000
     11420      3807  TIP3      H1             14.6943812922      -20.5417163765        3.1881658414  W2        3807            0.0000000000
     11421      3807  TIP3      H2             15.5774312922      -19.3190263765        3.0572758414  W2        3807            0.0000000000
     11422      3808  TIP3      OH2            19.3439712922      -19.1296563765       -9.5110241586  W2        3808            0.0000000000
     11423      3808  TIP3      H1             20.0877612922      -18.5436063765       -9.6508641586  W2        3808            0.0000000000
     11424      3808  TIP3      H2             18.6497812922      -18.5610763765       -9.1777841586  W2        3808            0.0000000000
     11425      3809  TIP3      OH2             3.4186512922      -32.7532363765        3.0907958414  W2        3809            0.0000000000
     11426      3809  TIP3      H1              2.5258812922      -32.4146963765        3.0231958414  W2        3809            0.0000000000
     11427      3809  TIP3      H2              3.3199312922      -33.6086263765        3.5088758414  W2        3809            0.0000000000
     11428      3810  TIP3      OH2            15.7064612922      -24.9367063765       -7.4852541586  W2        3810            0.0000000000
     11429      3810  TIP3      H1             15.4292212922      -25.6647763765       -6.9291441586  W2        3810            0.0000000000
     11430      3810  TIP3      H2             16.6337612922      -24.8175063765       -7.2799941586  W2        3810            0.0000000000
     11431      3811  TIP3      OH2             3.0698512922      -20.9487963765        1.5257358414  W2        3811            0.0000000000
     11432      3811  TIP3      H1              3.2868812922      -21.8805563765        1.4947058414  W2        3811            0.0000000000
     11433      3811  TIP3      H2              3.3162012922      -20.6742963765        2.4090158414  W2        3811            0.0000000000
     11434      3812  TIP3      OH2             8.9313112922      -22.4972963765      -11.2650441586  W2        3812            0.0000000000
     11435      3812  TIP3      H1              9.1702912922      -23.2454863765      -11.8121541586  W2        3812            0.0000000000
     11436      3812  TIP3      H2              8.6624412922      -22.8851263765      -10.4322641586  W2        3812            0.0000000000
     11437      3813  TIP3      OH2             7.8683712922      -22.9269163765       -8.8087841586  W2        3813            0.0000000000
     11438      3813  TIP3      H1              8.0151712922      -23.4469363765       -8.0186941586  W2        3813            0.0000000000
     11439      3813  TIP3      H2              7.8655412922      -22.0201563765       -8.5021941586  W2        3813            0.0000000000
     11440      3814  TIP3      OH2             4.3214812922      -25.6745863765       -8.2982441586  W2        3814            0.0000000000
     11441      3814  TIP3      H1              3.6354112922      -25.3223363765       -7.7312741586  W2        3814            0.0000000000
     11442      3814  TIP3      H2              4.8442712922      -24.9116263765       -8.5448141586  W2        3814            0.0000000000
     11443      3815  TIP3      OH2            12.1529912922      -33.0122063765        1.9806558414  W2        3815            0.0000000000
     11444      3815  TIP3      H1             12.8517812922      -32.9383363765        2.6306258414  W2        3815            0.0000000000
     11445      3815  TIP3      H2             11.7721312922      -33.8767063765        2.1349458414  W2        3815            0.0000000000
     11446      3816  TIP3      OH2            12.9374812922      -33.3600363765       -6.9221141586  W2        3816            0.0000000000
     11447      3816  TIP3      H1             13.1573112922      -32.8884963765       -7.7255741586  W2        3816            0.0000000000
     11448      3816  TIP3      H2             13.4958812922      -32.9657763765       -6.2520541586  W2        3816            0.0000000000
     11449      3817  TIP3      OH2            10.6060912922      -21.2295563765       -8.0593641586  W2        3817            0.0000000000
     11450      3817  TIP3      H1              9.7897012922      -20.7325863765       -8.0069341586  W2        3817            0.0000000000
     11451      3817  TIP3      H2             11.1357212922      -20.7542063765       -8.6994841586  W2        3817            0.0000000000
     11452      3818  TIP3      OH2            10.1374712922      -31.6321563765       -6.0872741586  W2        3818            0.0000000000
     11453      3818  TIP3      H1             10.9497312922      -31.1278363765       -6.0411041586  W2        3818            0.0000000000
     11454      3818  TIP3      H2              9.8927712922      -31.7771863765       -5.1733141586  W2        3818            0.0000000000
     11455      3819  TIP3      OH2            10.6731112922      -30.6458863765        3.0973858414  W2        3819            0.0000000000
     11456      3819  TIP3      H1             10.7921412922      -30.0723463765        3.8544258414  W2        3819            0.0000000000
     11457      3819  TIP3      H2             11.3285712922      -31.3339463765        3.2121658414  W2        3819            0.0000000000
     11458      3820  TIP3      OH2            11.0211412922      -34.5508563765       -5.1491641586  W2        3820            0.0000000000
     11459      3820  TIP3      H1             10.6744912922      -33.9337963765       -4.5047341586  W2        3820            0.0000000000
     11460      3820  TIP3      H2             11.6798312922      -34.0502863765       -5.6306141586  W2        3820            0.0000000000
     11461      3821  TIP3      OH2             7.9444012922      -20.1858363765       -8.0776741586  W2        3821            0.0000000000
     11462      3821  TIP3      H1              8.1052712922      -19.3860863765       -8.5784141586  W2        3821            0.0000000000
     11463      3821  TIP3      H2              7.7471812922      -19.8792363765       -7.1926141586  W2        3821            0.0000000000
     11464      3822  TIP3      OH2             6.6788412922      -33.4879163765       -8.4619141586  W2        3822            0.0000000000
     11465      3822  TIP3      H1              6.5953212922      -32.5996063765       -8.1152741586  W2        3822            0.0000000000
     11466      3822  TIP3      H2              7.5688712922      -33.7532463765       -8.2302341586  W2        3822            0.0000000000
     11467      3823  TIP3      OH2            16.8776912922      -32.7388563765        3.9323558414  W2        3823            0.0000000000
     11468      3823  TIP3      H1             15.9612712922      -32.4766863765        3.8447258414  W2        3823            0.0000000000
     11469      3823  TIP3      H2             17.2131912922      -32.7419563765        3.0358858414  W2        3823            0.0000000000
     11470      3824  TIP3      OH2            15.4797912922      -28.9887563765       -1.9719141586  W2        3824            0.0000000000
     11471      3824  TIP3      H1             14.6822312922      -29.4037363765       -2.3004141586  W2        3824            0.0000000000
     11472      3824  TIP3      H2             15.9249012922      -29.6793863765       -1.4808641586  W2        3824            0.0000000000
     11473      3825  TIP3      OH2             4.9373712922      -23.0606963765       -9.4014641586  W2        3825            0.0000000000
     11474      3825  TIP3      H1              5.5295212922      -22.3612163765       -9.1252241586  W2        3825            0.0000000000
     11475      3825  TIP3      H2              5.3966712922      -23.4937463765      -10.1210041586  W2        3825            0.0000000000
     11476      3826  TIP3      OH2             3.2532912922      -30.3963963765      -10.2855241586  W2        3826            0.0000000000
     11477      3826  TIP3      H1              3.2085512922      -29.4570863765      -10.1068241586  W2        3826            0.0000000000
     11478      3826  TIP3      H2              2.3656112922      -30.6319063765      -10.5553141586  W2        3826            0.0000000000
     11479      3827  TIP3      OH2            16.5662512922      -19.7325063765       -0.3495641586  W2        3827            0.0000000000
     11480      3827  TIP3      H1             16.4106812922      -19.0540663765       -1.0066341586  W2        3827            0.0000000000
     11481      3827  TIP3      H2             17.4988912922      -19.6605763765       -0.1465041586  W2        3827            0.0000000000
     11482      3828  TIP3      OH2             4.0614912922      -35.6147363765       -1.6124241586  W2        3828            0.0000000000
     11483      3828  TIP3      H1              3.8324712922      -35.5554863765       -2.5399241586  W2        3828            0.0000000000
     11484      3828  TIP3      H2              3.6188312922      -36.4061863765       -1.3060141586  W2        3828            0.0000000000
     11485      3829  TIP3      OH2             2.9918212922      -21.6740263765       -5.4518441586  W2        3829            0.0000000000
     11486      3829  TIP3      H1              2.1596812922      -21.2017563765       -5.4247041586  W2        3829            0.0000000000
     11487      3829  TIP3      H2              3.5376512922      -21.1642663765       -6.0505341586  W2        3829            0.0000000000
     11488      3830  TIP3      OH2             2.2801912922      -19.0616563765        5.8779558414  W2        3830            0.0000000000
     11489      3830  TIP3      H1              2.8204112922      -19.2782563765        6.6378758414  W2        3830            0.0000000000
     11490      3830  TIP3      H2              1.7989912922      -19.8670563765        5.6882058414  W2        3830            0.0000000000
     11491      3831  TIP3      OH2             6.8775312922      -20.1422163765        7.4983758414  W2        3831            0.0000000000
     11492      3831  TIP3      H1              7.6452512922      -20.6011363765        7.8392958414  W2        3831            0.0000000000
     11493      3831  TIP3      H2              6.8561512922      -20.3682363765        6.5684958414  W2        3831            0.0000000000
     11494      3832  TIP3      OH2            10.9694912922      -20.6341563765      -11.1264441586  W2        3832            0.0000000000
     11495      3832  TIP3      H1             10.3255912922      -21.2652963765      -10.8050741586  W2        3832            0.0000000000
     11496      3832  TIP3      H2             11.7313212922      -21.1653563765      -11.3580941586  W2        3832            0.0000000000
     11497      3833  TIP3      OH2            13.4544012922      -21.7621063765        6.2275258414  W2        3833            0.0000000000
     11498      3833  TIP3      H1             13.1033512922      -22.6188063765        6.4705658414  W2        3833            0.0000000000
     11499      3833  TIP3      H2             14.1807212922      -21.6194363765        6.8344258414  W2        3833            0.0000000000
     11500      3834  TIP3      OH2            15.5737812922      -20.8171663765      -10.8926441586  W2        3834            0.0000000000
     11501      3834  TIP3      H1             15.8568212922      -21.6116463765      -10.4399541586  W2        3834            0.0000000000
     11502      3834  TIP3      H2             16.3135712922      -20.5840663765      -11.4535341586  W2        3834            0.0000000000
     11503      3835  TIP3      OH2             2.1871412922      -25.2512463765        6.8323858414  W2        3835            0.0000000000
     11504      3835  TIP3      H1              2.3311912922      -26.1531763765        6.5460558414  W2        3835            0.0000000000
     11505      3835  TIP3      H2              1.4148812922      -24.9650363765        6.3446158414  W2        3835            0.0000000000
     11506      3836  TIP3      OH2             6.5285112922      -24.9076763765      -11.0351541586  W2        3836            0.0000000000
     11507      3836  TIP3      H1              6.5929212922      -25.7017163765      -10.5045141586  W2        3836            0.0000000000
     11508      3836  TIP3      H2              7.1814312922      -25.0263963765      -11.7249541586  W2        3836            0.0000000000
     11509      3837  TIP3      OH2             8.8427512922      -25.2814363765        6.2650258414  W2        3837            0.0000000000
     11510      3837  TIP3      H1              8.5141312922      -25.0106263765        5.4077658414  W2        3837            0.0000000000
     11511      3837  TIP3      H2              8.9945712922      -26.2224563765        6.1775258414  W2        3837            0.0000000000
     11512      3838  TIP3      OH2            11.8808512922      -23.8605063765      -11.2993541586  W2        3838            0.0000000000
     11513      3838  TIP3      H1             11.6122612922      -23.6802963765      -10.3984641586  W2        3838            0.0000000000
     11514      3838  TIP3      H2             11.6744112922      -24.7858863765      -11.4307741586  W2        3838            0.0000000000
     11515      3839  TIP3      OH2            14.5772712922      -25.3657063765        3.6482558414  W2        3839            0.0000000000
     11516      3839  TIP3      H1             15.3227512922      -24.7773363765        3.5286558414  W2        3839            0.0000000000
     11517      3839  TIP3      H2             13.8199512922      -24.7837363765        3.7115658414  W2        3839            0.0000000000
     11518      3840  TIP3      OH2             3.0197912922      -28.0509163765        6.2523158414  W2        3840            0.0000000000
     11519      3840  TIP3      H1              3.4279112922      -28.9082563765        6.1313758414  W2        3840            0.0000000000
     11520      3840  TIP3      H2              2.7595512922      -28.0367863765        7.1733458414  W2        3840            0.0000000000
     11521      3841  TIP3      OH2             7.6778912922      -26.9350563765       -8.7293541586  W2        3841            0.0000000000
     11522      3841  TIP3      H1              7.2180912922      -27.4192263765       -8.0435041586  W2        3841            0.0000000000
     11523      3841  TIP3      H2              7.9327612922      -27.6035163765       -9.3653041586  W2        3841            0.0000000000
     11524      3842  TIP3      OH2             6.9668212922      -29.0423463765        3.6266058414  W2        3842            0.0000000000
     11525      3842  TIP3      H1              6.3484312922      -28.3676863765        3.9070758414  W2        3842            0.0000000000
     11526      3842  TIP3      H2              7.3109412922      -28.7209563765        2.7932258414  W2        3842            0.0000000000
     11527      3843  TIP3      OH2             8.7489312922      -28.6918763765      -10.4670341586  W2        3843            0.0000000000
     11528      3843  TIP3      H1              8.5684312922      -28.8467563765      -11.3942041586  W2        3843            0.0000000000
     11529      3843  TIP3      H2              9.6989812922      -28.5840063765      -10.4222441586  W2        3843            0.0000000000
     11530      3844  TIP3      OH2            11.9866412922      -26.5708163765        6.9040858414  W2        3844            0.0000000000
     11531      3844  TIP3      H1             12.9397612922      -26.4869063765        6.8766858414  W2        3844            0.0000000000
     11532      3844  TIP3      H2             11.8261012922      -27.2826363765        7.5235758414  W2        3844            0.0000000000
     11533      3845  TIP3      OH2            18.1387612922      -26.3374563765      -11.0212241586  W2        3845            0.0000000000
     11534      3845  TIP3      H1             17.8652412922      -26.7619063765      -11.8343941586  W2        3845            0.0000000000
     11535      3845  TIP3      H2             18.1781712922      -25.4060063765      -11.2381841586  W2        3845            0.0000000000
     11536      3846  TIP3      OH2             7.3061912922      -31.6872663765        4.7089158414  W2        3846            0.0000000000
     11537      3846  TIP3      H1              7.4562812922      -32.4161363765        4.1068858414  W2        3846            0.0000000000
     11538      3846  TIP3      H2              7.3084312922      -30.9100963765        4.1501358414  W2        3846            0.0000000000
     11539      3847  TIP3      OH2             7.7187612922      -33.3176863765        2.2016558414  W2        3847            0.0000000000
     11540      3847  TIP3      H1              8.2545112922      -32.8660163765        1.5495858414  W2        3847            0.0000000000
     11541      3847  TIP3      H2              6.8667212922      -33.4257063765        1.7790658414  W2        3847            0.0000000000
     11542      3848  TIP3      OH2             9.3006012922      -27.8780663765        2.4411758414  W2        3848            0.0000000000
     11543      3848  TIP3      H1             10.0510812922      -28.0343163765        1.8679558414  W2        3848            0.0000000000
     11544      3848  TIP3      H2              8.9614312922      -27.0264063765        2.1657258414  W2        3848            0.0000000000
     11545      3849  TIP3      OH2            13.7162212922      -30.0628863765        7.4697058414  W2        3849            0.0000000000
     11546      3849  TIP3      H1             13.9083512922      -30.9939463765        7.3581558414  W2        3849            0.0000000000
     11547      3849  TIP3      H2             14.5738512922      -29.6379363765        7.4592458414  W2        3849            0.0000000000
     11548      3850  TIP3      OH2            15.0329412922      -27.2743663765        5.5469758414  W2        3850            0.0000000000
     11549      3850  TIP3      H1             14.7514412922      -26.5649063765        4.9693558414  W2        3850            0.0000000000
     11550      3850  TIP3      H2             15.9753712922      -27.3470663765        5.3960958414  W2        3850            0.0000000000
     11551      3851  TIP3      OH2             5.7848212922      -30.4889163765        6.6204758414  W2        3851            0.0000000000
     11552      3851  TIP3      H1              5.0177212922      -31.0214363765        6.4102358414  W2        3851            0.0000000000
     11553      3851  TIP3      H2              6.4637212922      -30.7988763765        6.0211058414  W2        3851            0.0000000000
     11554      3852  TIP3      OH2             8.5243112922      -35.8611163765        2.6330158414  W2        3852            0.0000000000
     11555      3852  TIP3      H1              8.4262712922      -34.9147963765        2.5276358414  W2        3852            0.0000000000
     11556      3852  TIP3      H2              7.7819312922      -36.2337363765        2.1573658414  W2        3852            0.0000000000
     11557      3853  TIP3      OH2             9.7883612922      -31.5395763765        6.1968558414  W2        3853            0.0000000000
     11558      3853  TIP3      H1              9.5529012922      -31.7589063765        7.0983458414  W2        3853            0.0000000000
     11559      3853  TIP3      H2              9.0050512922      -31.7464563765        5.6871058414  W2        3853            0.0000000000
     11560      3854  TIP3      OH2            12.5040212922      -32.4122263765        5.2722058414  W2        3854            0.0000000000
     11561      3854  TIP3      H1             11.5565612922      -32.3802563765        5.4045358414  W2        3854            0.0000000000
     11562      3854  TIP3      H2             12.8166912922      -33.0375163765        5.9260258414  W2        3854            0.0000000000
     11563      3855  TIP3      OH2            14.1381712922      -33.7781163765        7.2773958414  W2        3855            0.0000000000
     11564      3855  TIP3      H1             14.0413512922      -34.7303863765        7.2715858414  W2        3855            0.0000000000
     11565      3855  TIP3      H2             13.8164812922      -33.5094363765        8.1379458414  W2        3855            0.0000000000
     11566      3856  TIP3      OH2             3.9651012922      -32.5685363765        6.3249458414  W2        3856            0.0000000000
     11567      3856  TIP3      H1              4.1768412922      -33.2749263765        5.7146958414  W2        3856            0.0000000000
     11568      3856  TIP3      H2              3.8538512922      -33.0059363765        7.1690658414  W2        3856            0.0000000000
     11569      3857  TIP3      OH2             8.7461212922      -36.5673763765        5.3042958414  W2        3857            0.0000000000
     11570      3857  TIP3      H1              9.4579612922      -37.2071563765        5.2902058414  W2        3857            0.0000000000
     11571      3857  TIP3      H2              8.6451612922      -36.3005463765        4.3906058414  W2        3857            0.0000000000
     11572      3858  TIP3      OH2             9.0998712922      -34.8845363765        7.3579258414  W2        3858            0.0000000000
     11573      3858  TIP3      H1              8.9680912922      -35.3601563765        6.5377758414  W2        3858            0.0000000000
     11574      3858  TIP3      H2              8.5006112922      -34.1401763765        7.3026358414  W2        3858            0.0000000000
     11575      3859  TIP3      OH2             8.6461012922      -18.0015063765       -9.4656741586  W2        3859            0.0000000000
     11576      3859  TIP3      H1              9.5791712922      -17.8436363765       -9.3218341586  W2        3859            0.0000000000
     11577      3859  TIP3      H2              8.3819812922      -17.3262063765      -10.0905241586  W2        3859            0.0000000000
     11578      3860  TIP3      OH2             2.2145912922      -23.3651263765       -9.9828641586  W2        3860            0.0000000000
     11579      3860  TIP3      H1              3.1285112922      -23.2862363765       -9.7094741586  W2        3860            0.0000000000
     11580      3860  TIP3      H2              2.2219012922      -24.0521663765      -10.6493041586  W2        3860            0.0000000000
     11581      3861  TIP3      OH2             0.8636512922      -17.9722763765       -4.9054741586  W2        3861            0.0000000000
     11582      3861  TIP3      H1              0.2163612922      -18.4341063765       -5.4383541586  W2        3861            0.0000000000
     11583      3861  TIP3      H2              1.2181112922      -18.6439463765       -4.3228541586  W2        3861            0.0000000000
     11584      3862  TIP3      OH2             1.7335712922      -19.8915763765       -3.1008541586  W2        3862            0.0000000000
     11585      3862  TIP3      H1              1.3992512922      -20.7718463765       -2.9288341586  W2        3862            0.0000000000
     11586      3862  TIP3      H2              1.9558112922      -19.5460763765       -2.2362941586  W2        3862            0.0000000000
     11587      3863  TIP3      OH2            19.2820512922      -19.0819363765       -0.1203741586  W2        3863            0.0000000000
     11588      3863  TIP3      H1             19.2607212922      -18.8970963765        0.8185658414  W2        3863            0.0000000000
     11589      3863  TIP3      H2             19.9726712922      -18.5135363765       -0.4612341586  W2        3863            0.0000000000
     11590      3864  TIP3      OH2            18.8453412922      -19.5148263765        2.8015358414  W2        3864            0.0000000000
     11591      3864  TIP3      H1             18.3582112922      -20.2504163765        2.4302758414  W2        3864            0.0000000000
     11592      3864  TIP3      H2             19.3946112922      -19.9084363765        3.4794758414  W2        3864            0.0000000000
     11593      3865  TIP3      OH2            17.2960712922      -23.7250163765        7.4395658414  W2        3865            0.0000000000
     11594      3865  TIP3      H1             16.4301812922      -23.8300463765        7.8337958414  W2        3865            0.0000000000
     11595      3865  TIP3      H2             17.6726612922      -22.9666863765        7.8860358414  W2        3865            0.0000000000
     11596      3866  TIP3      OH2            18.5970412922      -25.4686463765       -7.0461841586  W2        3866            0.0000000000
     11597      3866  TIP3      H1             19.4471812922      -25.0475563765       -6.9190241586  W2        3866            0.0000000000
     11598      3866  TIP3      H2             18.6025512922      -26.2086363765       -6.4390441586  W2        3866            0.0000000000
     11599      3867  TIP3      OH2            18.9916012922      -27.4149063765       -5.2226141586  W2        3867            0.0000000000
     11600      3867  TIP3      H1             18.2650612922      -27.8946463765       -4.8248541586  W2        3867            0.0000000000
     11601      3867  TIP3      H2             19.5729312922      -27.2094363765       -4.4904541586  W2        3867            0.0000000000
     11602      3868  TIP3      OH2            18.7507212922      -24.6301563765       -0.2748541586  W2        3868            0.0000000000
     11603      3868  TIP3      H1             19.5841412922      -25.0081563765       -0.5554941586  W2        3868            0.0000000000
     11604      3868  TIP3      H2             18.8627512922      -23.6870363765       -0.3939441586  W2        3868            0.0000000000
     11605      3869  TIP3      OH2            17.2369512922      -21.7524063765        2.0319858414  W2        3869            0.0000000000
     11606      3869  TIP3      H1             16.5894812922      -21.4272563765        2.6575058414  W2        3869            0.0000000000
     11607      3869  TIP3      H2             16.7193512922      -22.1926363765        1.3578158414  W2        3869            0.0000000000
     11608      3870  TIP3      OH2            19.2599112922      -27.5140563765       -8.8314841586  W2        3870            0.0000000000
     11609      3870  TIP3      H1             18.7380212922      -27.1576463765       -9.5503941586  W2        3870            0.0000000000
     11610      3870  TIP3      H2             19.2268312922      -26.8392763765       -8.1533941586  W2        3870            0.0000000000
     11611      3871  TIP3      OH2            17.6088112922      -30.2744963765      -10.2807741586  W2        3871            0.0000000000
     11612      3871  TIP3      H1             17.7052512922      -29.6077963765      -10.9608041586  W2        3871            0.0000000000
     11613      3871  TIP3      H2             17.4687712922      -31.0898663765      -10.7622241586  W2        3871            0.0000000000
     11614      3872  TIP3      OH2            16.7782812922      -28.8942563765       -4.6597441586  W2        3872            0.0000000000
     11615      3872  TIP3      H1             16.6281612922      -29.8393963765       -4.6799641586  W2        3872            0.0000000000
     11616      3872  TIP3      H2             16.4247312922      -28.6131163765       -3.8158341586  W2        3872            0.0000000000
     11617      3873  TIP3      OH2             1.8135212922      -26.8160363765       -0.6493641586  W2        3873            0.0000000000
     11618      3873  TIP3      H1              1.9978112922      -26.8978663765       -1.5850741586  W2        3873            0.0000000000
     11619      3873  TIP3      H2              2.6628112922      -26.9403363765       -0.2257241586  W2        3873            0.0000000000
     11620      3874  TIP3      OH2            17.6345712922      -26.9239263765        4.9790858414  W2        3874            0.0000000000
     11621      3874  TIP3      H1             18.2173012922      -27.6586963765        5.1708058414  W2        3874            0.0000000000
     11622      3874  TIP3      H2             18.1985012922      -26.1518963765        5.0256658414  W2        3874            0.0000000000
     11623      3875  TIP3      OH2            19.1312812922      -29.0213463765        5.6636258414  W2        3875            0.0000000000
     11624      3875  TIP3      H1             18.2679512922      -29.4001363765        5.4980958414  W2        3875            0.0000000000
     11625      3875  TIP3      H2             19.7356512922      -29.7598663765        5.5892058414  W2        3875            0.0000000000
     11626      3876  TIP3      OH2            16.8561912922      -32.8665163765      -11.1632241586  W2        3876            0.0000000000
     11627      3876  TIP3      H1             17.4667712922      -33.2378363765      -10.5264041586  W2        3876            0.0000000000
     11628      3876  TIP3      H2             16.0193412922      -33.2878263765      -10.9672241586  W2        3876            0.0000000000
     11629      3877  TIP3      OH2            16.4887612922      -31.3116763765       -6.1972341586  W2        3877            0.0000000000
     11630      3877  TIP3      H1             16.7684712922      -32.2186363765       -6.0730641586  W2        3877            0.0000000000
     11631      3877  TIP3      H2             17.2479312922      -30.8775263765       -6.5863141586  W2        3877            0.0000000000
     11632      3878  TIP3      OH2            17.1005912922      -30.7299363765       -0.7613441586  W2        3878            0.0000000000
     11633      3878  TIP3      H1             18.0333912922      -30.5179463765       -0.7957441586  W2        3878            0.0000000000
     11634      3878  TIP3      H2             16.8653412922      -30.6287263765        0.1609558414  W2        3878            0.0000000000
     11635      3879  TIP3      OH2            17.1297812922      -29.9934063765        2.0145958414  W2        3879            0.0000000000
     11636      3879  TIP3      H1             16.2869112922      -29.7253663765        2.3805758414  W2        3879            0.0000000000
     11637      3879  TIP3      H2             17.5722112922      -29.1712163765        1.8037058414  W2        3879            0.0000000000
     11638      3880  TIP3      OH2             1.4110012922      -31.5455363765        5.4915158414  W2        3880            0.0000000000
     11639      3880  TIP3      H1              2.3304912922      -31.6677063765        5.7278258414  W2        3880            0.0000000000
     11640      3880  TIP3      H2              0.9614512922      -32.2955663765        5.8808658414  W2        3880            0.0000000000
     11641      3881  TIP3      OH2            19.4129412922      -36.0133863765        7.3680958414  W2        3881            0.0000000000
     11642      3881  TIP3      H1             19.7626412922      -36.6670363765        6.7625658414  W2        3881            0.0000000000
     11643      3881  TIP3      H2             19.5598912922      -35.1759763765        6.9283558414  W2        3881            0.0000000000
     11644      3882  TIP3      OH2            17.1022412922      -34.0487463765       -6.1490341586  W2        3882            0.0000000000
     11645      3882  TIP3      H1             17.2847412922      -34.4975963765       -5.3235341586  W2        3882            0.0000000000
     11646      3882  TIP3      H2             16.5025312922      -34.6333063765       -6.6125741586  W2        3882            0.0000000000
     11647      3883  TIP3      OH2             2.6322512922      -33.2333763765       -1.6171941586  W2        3883            0.0000000000
     11648      3883  TIP3      H1              3.0774112922      -34.0251263765       -1.3152241586  W2        3883            0.0000000000
     11649      3883  TIP3      H2              3.0985512922      -32.5168563765       -1.1866341586  W2        3883            0.0000000000
     11650      3884  TIP3      OH2             0.9362812922      -30.2340763765       -0.5481741586  W2        3884            0.0000000000
     11651      3884  TIP3      H1              1.4282612922      -30.4550263765       -1.3389741586  W2        3884            0.0000000000
     11652      3884  TIP3      H2              1.2983712922      -29.3937363765       -0.2672241586  W2        3884            0.0000000000
     11653      3885  TIP3      OH2            18.9326612922      -33.9039263765        5.7172258414  W2        3885            0.0000000000
     11654      3885  TIP3      H1             18.0152312922      -33.6332163765        5.6815758414  W2        3885            0.0000000000
     11655      3885  TIP3      H2             19.0556012922      -34.4390863765        4.9331958414  W2        3885            0.0000000000
     11656      3886  TIP3      OH2            18.9688612922      -33.9809363765       -9.6210041586  W2        3886            0.0000000000
     11657      3886  TIP3      H1             19.3811212922      -34.7023663765      -10.0962041586  W2        3886            0.0000000000
     11658      3886  TIP3      H2             19.6505112922      -33.3114763765       -9.5625741586  W2        3886            0.0000000000
     11659      3887  TIP3      OH2             1.2499312922      -33.9761663765       -6.4939341586  W2        3887            0.0000000000
     11660      3887  TIP3      H1              0.3247712922      -33.7675063765       -6.6233841586  W2        3887            0.0000000000
     11661      3887  TIP3      H2              1.7039212922      -33.4920863765       -7.1837041586  W2        3887            0.0000000000
     11662      3888  TIP3      OH2            16.0206512922      -18.9919963765       -4.5481941586  W2        3888            0.0000000000
     11663      3888  TIP3      H1             16.6729412922      -19.3397863765       -5.1562841586  W2        3888            0.0000000000
     11664      3888  TIP3      H2             16.5310312922      -18.5036763765       -3.9022241586  W2        3888            0.0000000000
     11665      3889  TIP3      OH2             1.2134712922      -35.2382663765        1.8503158414  W2        3889            0.0000000000
     11666      3889  TIP3      H1              0.5485212922      -35.4842363765        2.4934058414  W2        3889            0.0000000000
     11667      3889  TIP3      H2              0.7706012922      -34.6162263765        1.2731158414  W2        3889            0.0000000000
     11668      3890  TIP3      OH2             3.4054012922      -22.0628563765        5.9948958414  W2        3890            0.0000000000
     11669      3890  TIP3      H1              2.5846512922      -21.8882063765        5.5343658414  W2        3890            0.0000000000
     11670      3890  TIP3      H2              3.1531812922      -22.1363863765        6.9153358414  W2        3890            0.0000000000
     11671      3891  TIP3      OH2             6.3596912922      -21.0887363765        2.2532958414  W2        3891            0.0000000000
     11672      3891  TIP3      H1              5.9348012922      -20.2788863765        1.9707558414  W2        3891            0.0000000000
     11673      3891  TIP3      H2              7.2639712922      -21.0033263765        1.9512758414  W2        3891            0.0000000000
     11674      3892  TIP3      OH2            10.6708312922      -19.6897363765        5.2126658414  W2        3892            0.0000000000
     11675      3892  TIP3      H1             10.8555812922      -20.0231263765        6.0906958414  W2        3892            0.0000000000
     11676      3892  TIP3      H2             11.5172812922      -19.3798763765        4.8905858414  W2        3892            0.0000000000
     11677      3893  TIP3      OH2            13.0158712922      -18.4038463765        4.4568058414  W2        3893            0.0000000000
     11678      3893  TIP3      H1             13.6927612922      -19.0366163765        4.2167258414  W2        3893            0.0000000000
     11679      3893  TIP3      H2             13.3377512922      -18.0027963765        5.2641358414  W2        3893            0.0000000000
     11680      3894  TIP3      OH2            17.9332512922      -35.8142963765        3.5363058414  W2        3894            0.0000000000
     11681      3894  TIP3      H1             17.1206012922      -35.4892663765        3.1487758414  W2        3894            0.0000000000
     11682      3894  TIP3      H2             18.1661012922      -36.5744463765        3.0032158414  W2        3894            0.0000000000
     11683      3895  TIP3      OH2             3.7613612922      -17.8323463765        2.3008258414  W2        3895            0.0000000000
     11684      3895  TIP3      H1              3.0410012922      -17.3922463765        1.8495958414  W2        3895            0.0000000000
     11685      3895  TIP3      H2              3.3957612922      -18.0828763765        3.1492258414  W2        3895            0.0000000000
     11686      3896  TIP3      OH2             6.2286212922      -18.2319563765        1.3305458414  W2        3896            0.0000000000
     11687      3896  TIP3      H1              5.3638412922      -18.1601063765        1.7345558414  W2        3896            0.0000000000
     11688      3896  TIP3      H2              6.1735212922      -17.6852263765        0.5467958414  W2        3896            0.0000000000
     11689      3897  TIP3      OH2            10.9391812922      -18.3440663765        0.5061458414  W2        3897            0.0000000000
     11690      3897  TIP3      H1             10.4825812922      -17.8150963765       -0.1480141586  W2        3897            0.0000000000
     11691      3897  TIP3      H2             11.1019812922      -17.7409263765        1.2313758414  W2        3897            0.0000000000
     11692      3898  TIP3      OH2            13.2668112922      -19.4661063765        1.4511758414  W2        3898            0.0000000000
     11693      3898  TIP3      H1             12.3621812922      -19.3010863765        1.1853858414  W2        3898            0.0000000000
     11694      3898  TIP3      H2             13.6956712922      -18.6128863765        1.3855158414  W2        3898            0.0000000000
     11695      3899  TIP3      OH2            15.8710012922      -17.8961963765        1.7459558414  W2        3899            0.0000000000
     11696      3899  TIP3      H1             15.6892012922      -16.9803063765        1.5354458414  W2        3899            0.0000000000
     11697      3899  TIP3      H2             16.0477812922      -18.3064863765        0.8994158414  W2        3899            0.0000000000
     11698      3900  TIP3      OH2             3.1761712922      -19.2090963765       -0.7889941586  W2        3900            0.0000000000
     11699      3900  TIP3      H1              3.1577712922      -19.6345863765        0.0682358414  W2        3900            0.0000000000
     11700      3900  TIP3      H2              3.9809612922      -19.5275963765       -1.1977741586  W2        3900            0.0000000000
     11701      3901  TIP3      OH2             5.3174812922      -20.4992263765       -2.1340041586  W2        3901            0.0000000000
     11702      3901  TIP3      H1              5.0985512922      -21.4154863765       -1.9644041586  W2        3901            0.0000000000
     11703      3901  TIP3      H2              6.1417012922      -20.3591863765       -1.6678641586  W2        3901            0.0000000000
     11704      3902  TIP3      OH2             7.8547312922      -20.0292963765       -1.2852041586  W2        3902            0.0000000000
     11705      3902  TIP3      H1              8.0673012922      -20.9173963765       -1.5721141586  W2        3902            0.0000000000
     11706      3902  TIP3      H2              7.9192412922      -20.0635263765       -0.3308041586  W2        3902            0.0000000000
     11707      3903  TIP3      OH2            11.3631012922      -34.3652363765       -2.1408741586  W2        3903            0.0000000000
     11708      3903  TIP3      H1             10.6887812922      -34.9946763765       -1.8852941586  W2        3903            0.0000000000
     11709      3903  TIP3      H2             11.9270212922      -34.8493463765       -2.7440841586  W2        3903            0.0000000000
     11710      3904  TIP3      OH2            16.5058212922      -36.2578363765       -2.0281641586  W2        3904            0.0000000000
     11711      3904  TIP3      H1             17.1095812922      -35.7102963765       -2.5300641586  W2        3904            0.0000000000
     11712      3904  TIP3      H2             15.6360212922      -35.9387963765       -2.2687541586  W2        3904            0.0000000000
     11713      3905  TIP3      OH2            18.2328612922      -35.1189663765       -3.6950741586  W2        3905            0.0000000000
     11714      3905  TIP3      H1             18.8446112922      -35.6333963765       -4.2217141586  W2        3905            0.0000000000
     11715      3905  TIP3      H2             18.6152012922      -34.2417563765       -3.6716341586  W2        3905            0.0000000000
     11716      3906  TIP3      OH2             3.6898512922      -35.7312063765       -4.3188841586  W2        3906            0.0000000000
     11717      3906  TIP3      H1              2.9128312922      -35.9657163765       -4.8262941586  W2        3906            0.0000000000
     11718      3906  TIP3      H2              4.2202112922      -36.5279963765       -4.3100841586  W2        3906            0.0000000000
     11719      3907  TIP3      OH2             2.5261912922      -35.9333963765       -8.5152741586  W2        3907            0.0000000000
     11720      3907  TIP3      H1              2.9652612922      -35.3223463765       -9.1069241586  W2        3907            0.0000000000
     11721      3907  TIP3      H2              1.8924312922      -35.3949863765       -8.0412741586  W2        3907            0.0000000000
     11722      3908  TIP3      OH2             8.2691112922      -35.8044963765       -4.5055741586  W2        3908            0.0000000000
     11723      3908  TIP3      H1              9.1434512922      -35.4160663765       -4.5351441586  W2        3908            0.0000000000
     11724      3908  TIP3      H2              8.1331912922      -36.0197163765       -3.5828541586  W2        3908            0.0000000000
     11725      3909  TIP3      OH2            13.8259512922      -35.7745163765       -2.8564041586  W2        3909            0.0000000000
     11726      3909  TIP3      H1             13.9021112922      -35.6793563765       -3.8058041586  W2        3909            0.0000000000
     11727      3909  TIP3      H2             13.5508712922      -36.6822263765       -2.7274941586  W2        3909            0.0000000000
     11728      3910  TIP3      OH2            15.1792112922      -35.7487363765       -7.1639041586  W2        3910            0.0000000000
     11729      3910  TIP3      H1             14.4763212922      -35.1338163765       -7.3737641586  W2        3910            0.0000000000
     11730      3910  TIP3      H2             14.7343512922      -36.5860663765       -7.0328141586  W2        3910            0.0000000000
     11731      3911  TIP3      OH2             2.4271412922      -19.9851763765       -7.6177641586  W2        3911            0.0000000000
     11732      3911  TIP3      H1              1.7421312922      -20.0232863765       -8.2852541586  W2        3911            0.0000000000
     11733      3911  TIP3      H2              2.4308612922      -19.0724163765       -7.3295541586  W2        3911            0.0000000000
     11734      3912  TIP3      OH2             4.3871012922      -34.0172463765      -10.0728641586  W2        3912            0.0000000000
     11735      3912  TIP3      H1              4.8784412922      -34.6470063765      -10.6003141586  W2        3912            0.0000000000
     11736      3912  TIP3      H2              5.0107312922      -33.7213063765       -9.4097441586  W2        3912            0.0000000000
     11737      3913  TIP3      OH2             9.4131112922      -33.7240963765       -7.6158141586  W2        3913            0.0000000000
     11738      3913  TIP3      H1              9.5912412922      -34.3707763765       -6.9329541586  W2        3913            0.0000000000
     11739      3913  TIP3      H2              9.3597312922      -32.8903263765       -7.1487041586  W2        3913            0.0000000000
     11740      3914  TIP3      OH2            11.2914912922      -18.7756863765       -9.2201441586  W2        3914            0.0000000000
     11741      3914  TIP3      H1             12.1575112922      -18.4089463765       -9.3983241586  W2        3914            0.0000000000
     11742      3914  TIP3      H2             11.0447712922      -19.2148863765      -10.0340641586  W2        3914            0.0000000000
     11743      3915  TIP3      OH2            18.0004512922      -19.2126563765       -6.5410341586  W2        3915            0.0000000000
     11744      3915  TIP3      H1             17.8061612922      -19.9604463765       -7.1060741586  W2        3915            0.0000000000
     11745      3915  TIP3      H2             17.9614612922      -18.4546463765       -7.1242441586  W2        3915            0.0000000000
     11746      3916  TIP3      OH2             3.6476512922      -35.2170163765        5.1987358414  W2        3916            0.0000000000
     11747      3916  TIP3      H1              3.2814712922      -35.9827563765        5.6412058414  W2        3916            0.0000000000
     11748      3916  TIP3      H2              4.5605012922      -35.1879963765        5.4852458414  W2        3916            0.0000000000
     11749      3917  TIP3      OH2             5.6207312922      -35.8665763765        6.7344458414  W2        3917            0.0000000000
     11750      3917  TIP3      H1              6.5190912922      -36.1405563765        6.5497858414  W2        3917            0.0000000000
     11751      3917  TIP3      H2              5.2340412922      -36.6089763765        7.1987058414  W2        3917            0.0000000000
     11752      3918  TIP3      OH2             4.2452612922      -19.0650963765      -10.5925541586  W2        3918            0.0000000000
     11753      3918  TIP3      H1              3.9777212922      -18.7788063765       -9.7192441586  W2        3918            0.0000000000
     11754      3918  TIP3      H2              5.0165212922      -19.6111763765      -10.4403041586  W2        3918            0.0000000000
     11755      3919  TIP3      OH2            14.0419612922      -36.5340463765        6.9167258414  W2        3919            0.0000000000
     11756      3919  TIP3      H1             14.1186812922      -36.9599763765        7.7704958414  W2        3919            0.0000000000
     11757      3919  TIP3      H2             14.9356212922      -36.5205763765        6.5740758414  W2        3919            0.0000000000
     11758      3920  TIP3      OH2            17.2180712922      -20.4614163765        5.6091458414  W2        3920            0.0000000000
     11759      3920  TIP3      H1             16.4362612922      -20.6476163765        5.0892058414  W2        3920            0.0000000000
     11760      3920  TIP3      H2             17.1460612922      -19.5319863765        5.8263958414  W2        3920            0.0000000000
     11761      3921  TIP3      OH2            31.6241112922      -26.5749763765       -4.3601341586  W2        3921            0.0000000000
     11762      3921  TIP3      H1             31.7132212922      -25.6311563765       -4.4924241586  W2        3921            0.0000000000
     11763      3921  TIP3      H2             30.9858712922      -26.8503363765       -5.0181941586  W2        3921            0.0000000000
     11764      3922  TIP3      OH2            30.5572412922      -27.3199063765       -0.9413141586  W2        3922            0.0000000000
     11765      3922  TIP3      H1             30.5189912922      -27.9662763765       -0.2363541586  W2        3922            0.0000000000
     11766      3922  TIP3      H2             30.2348912922      -27.7864663765       -1.7124441586  W2        3922            0.0000000000
     11767      3923  TIP3      OH2            22.9257412922      -27.7056963765        0.6516758414  W2        3923            0.0000000000
     11768      3923  TIP3      H1             22.9669512922      -28.3313663765        1.3749158414  W2        3923            0.0000000000
     11769      3923  TIP3      H2             23.6285112922      -27.0818363765        0.8337158414  W2        3923            0.0000000000
     11770      3924  TIP3      OH2            34.2632612922      -24.3808663765       -2.6398041586  W2        3924            0.0000000000
     11771      3924  TIP3      H1             33.8225312922      -25.1012663765       -2.1892441586  W2        3924            0.0000000000
     11772      3924  TIP3      H2             34.2502312922      -23.6601463765       -2.0100341586  W2        3924            0.0000000000
     11773      3925  TIP3      OH2            23.8490512922      -23.2558063765       -0.8134141586  W2        3925            0.0000000000
     11774      3925  TIP3      H1             23.4795712922      -24.0577563765       -1.1829841586  W2        3925            0.0000000000
     11775      3925  TIP3      H2             24.7901612922      -23.4243163765       -0.7670741586  W2        3925            0.0000000000
     11776      3926  TIP3      OH2            20.4591012922      -29.5955463765       -5.4205341586  W2        3926            0.0000000000
     11777      3926  TIP3      H1             20.0114412922      -28.7496763765       -5.4388841586  W2        3926            0.0000000000
     11778      3926  TIP3      H2             19.8982212922      -30.1751263765       -5.9360241586  W2        3926            0.0000000000
     11779      3927  TIP3      OH2            21.1697112922      -27.4335863765       -3.2947341586  W2        3927            0.0000000000
     11780      3927  TIP3      H1             21.3830612922      -28.2034263765       -2.7674341586  W2        3927            0.0000000000
     11781      3927  TIP3      H2             21.9074712922      -27.3439163765       -3.8979741586  W2        3927            0.0000000000
     11782      3928  TIP3      OH2            31.3748112922      -19.2766963765       -2.4277641586  W2        3928            0.0000000000
     11783      3928  TIP3      H1             31.9944512922      -19.9532263765       -2.7008441586  W2        3928            0.0000000000
     11784      3928  TIP3      H2             31.1665512922      -19.4946163765       -1.5192741586  W2        3928            0.0000000000
     11785      3929  TIP3      OH2            28.9466812922      -24.8877663765       -0.5352141586  W2        3929            0.0000000000
     11786      3929  TIP3      H1             29.2504712922      -25.5736263765       -1.1298041586  W2        3929            0.0000000000
     11787      3929  TIP3      H2             29.6680812922      -24.7688963765        0.0825858414  W2        3929            0.0000000000
     11788      3930  TIP3      OH2            32.0873812922      -30.4935263765       -0.2077341586  W2        3930            0.0000000000
     11789      3930  TIP3      H1             32.2299712922      -31.4398263765       -0.1875741586  W2        3930            0.0000000000
     11790      3930  TIP3      H2             31.9812812922      -30.2865463765       -1.1362441586  W2        3930            0.0000000000
     11791      3931  TIP3      OH2            25.2422112922      -32.3918863765       -2.9352541586  W2        3931            0.0000000000
     11792      3931  TIP3      H1             25.2853212922      -31.5320363765       -3.3536241586  W2        3931            0.0000000000
     11793      3931  TIP3      H2             24.7846212922      -32.9444163765       -3.5689341586  W2        3931            0.0000000000
     11794      3932  TIP3      OH2            32.9644812922      -32.2613263765       -4.5344241586  W2        3932            0.0000000000
     11795      3932  TIP3      H1             33.6109112922      -32.5900063765       -3.9096641586  W2        3932            0.0000000000
     11796      3932  TIP3      H2             33.4744212922      -31.7434263765       -5.1572841586  W2        3932            0.0000000000
     11797      3933  TIP3      OH2            21.8623612922      -29.9953063765       -2.1731141586  W2        3933            0.0000000000
     11798      3933  TIP3      H1             22.5160212922      -30.5451363765       -1.7411041586  W2        3933            0.0000000000
     11799      3933  TIP3      H2             21.8862912922      -30.2694063765       -3.0899141586  W2        3933            0.0000000000
     11800      3934  TIP3      OH2            27.0188112922      -28.4451763765       -2.9579641586  W2        3934            0.0000000000
     11801      3934  TIP3      H1             27.6349112922      -28.9716363765       -2.4485641586  W2        3934            0.0000000000
     11802      3934  TIP3      H2             26.4326912922      -29.0853063765       -3.3616041586  W2        3934            0.0000000000
     11803      3935  TIP3      OH2            24.0524012922      -33.4740463765        1.1388258414  W2        3935            0.0000000000
     11804      3935  TIP3      H1             23.8335712922      -32.9439863765        0.3724258414  W2        3935            0.0000000000
     11805      3935  TIP3      H2             23.3844912922      -33.2474963765        1.7859658414  W2        3935            0.0000000000
     11806      3936  TIP3      OH2            31.4213812922      -23.9739363765       -5.3172641586  W2        3936            0.0000000000
     11807      3936  TIP3      H1             31.1258912922      -24.2967063765       -6.1685741586  W2        3936            0.0000000000
     11808      3936  TIP3      H2             31.0971612922      -23.0742663765       -5.2760041586  W2        3936            0.0000000000
     11809      3937  TIP3      OH2            26.6215412922      -25.7984763765        1.4261958414  W2        3937            0.0000000000
     11810      3937  TIP3      H1             25.8814512922      -25.2003263765        1.5297158414  W2        3937            0.0000000000
     11811      3937  TIP3      H2             27.3354912922      -25.2445163765        1.1105558414  W2        3937            0.0000000000
     11812      3938  TIP3      OH2            34.7283212922      -32.9703963765       -2.5538341586  W2        3938            0.0000000000
     11813      3938  TIP3      H1             34.5131212922      -33.7360563765       -2.0212341586  W2        3938            0.0000000000
     11814      3938  TIP3      H2             35.3840612922      -32.4979363765       -2.0409841586  W2        3938            0.0000000000
     11815      3939  TIP3      OH2            23.6461312922      -31.5818663765       -0.9089541586  W2        3939            0.0000000000
     11816      3939  TIP3      H1             24.2597612922      -30.9491063765       -0.5357141586  W2        3939            0.0000000000
     11817      3939  TIP3      H2             24.1582012922      -32.0543663765       -1.5652641586  W2        3939            0.0000000000
     11818      3940  TIP3      OH2            25.0289712922      -23.8341763765        2.2133458414  W2        3940            0.0000000000
     11819      3940  TIP3      H1             25.0237312922      -22.9548263765        1.8352758414  W2        3940            0.0000000000
     11820      3940  TIP3      H2             24.1753812922      -23.9177663765        2.6383358414  W2        3940            0.0000000000
     11821      3941  TIP3      OH2            21.1500612922      -24.1633863765       -7.0047241586  W2        3941            0.0000000000
     11822      3941  TIP3      H1             20.8781512922      -23.9342863765       -7.8934341586  W2        3941            0.0000000000
     11823      3941  TIP3      H2             21.1956312922      -23.3255063765       -6.5441941586  W2        3941            0.0000000000
     11824      3942  TIP3      OH2            34.7750312922      -22.5417963765       -0.2918741586  W2        3942            0.0000000000
     11825      3942  TIP3      H1             33.8334012922      -22.4834063765       -0.1301841586  W2        3942            0.0000000000
     11826      3942  TIP3      H2             35.0516412922      -21.6357463765       -0.4289041586  W2        3942            0.0000000000
     11827      3943  TIP3      OH2            35.0757312922      -34.2552663765        1.1255158414  W2        3943            0.0000000000
     11828      3943  TIP3      H1             34.3396512922      -33.6445563765        1.0876458414  W2        3943            0.0000000000
     11829      3943  TIP3      H2             35.7591312922      -33.8403663765        0.5991558414  W2        3943            0.0000000000
     11830      3944  TIP3      OH2            28.0788712922      -36.1685363765       -1.4086841586  W2        3944            0.0000000000
     11831      3944  TIP3      H1             27.9612912922      -37.1169363765       -1.4628541586  W2        3944            0.0000000000
     11832      3944  TIP3      H2             27.2238812922      -35.8359263765       -1.1355741586  W2        3944            0.0000000000
     11833      3945  TIP3      OH2            33.0271512922      -20.7604463765       -3.6667141586  W2        3945            0.0000000000
     11834      3945  TIP3      H1             33.4523812922      -21.4676563765       -4.1517541586  W2        3945            0.0000000000
     11835      3945  TIP3      H2             33.3441512922      -19.9591763765       -4.0834941586  W2        3945            0.0000000000
     11836      3946  TIP3      OH2            34.1868012922      -22.8595963765       -5.1580541586  W2        3946            0.0000000000
     11837      3946  TIP3      H1             33.9292812922      -23.5495863765       -5.7694641586  W2        3946            0.0000000000
     11838      3946  TIP3      H2             34.2578812922      -23.3024763765       -4.3124641586  W2        3946            0.0000000000
     11839      3947  TIP3      OH2            35.8728212922      -24.2929263765        3.3192958414  W2        3947            0.0000000000
     11840      3947  TIP3      H1             36.0124512922      -24.8846763765        2.5799958414  W2        3947            0.0000000000
     11841      3947  TIP3      H2             36.0401012922      -23.4203363765        2.9631758414  W2        3947            0.0000000000
     11842      3948  TIP3      OH2            30.3453612922      -27.3309763765       -6.9081041586  W2        3948            0.0000000000
     11843      3948  TIP3      H1             29.6339112922      -26.7960063765       -7.2600541586  W2        3948            0.0000000000
     11844      3948  TIP3      H2             31.0363212922      -27.2757663765       -7.5682141586  W2        3948            0.0000000000
     11845      3949  TIP3      OH2            30.3992812922      -28.8735463765       -9.8696041586  W2        3949            0.0000000000
     11846      3949  TIP3      H1             31.1002712922      -28.8508563765       -9.2182041586  W2        3949            0.0000000000
     11847      3949  TIP3      H2             30.7015712922      -29.5015763765      -10.5256741586  W2        3949            0.0000000000
     11848      3950  TIP3      OH2            33.7511312922      -27.1216463765       -5.9565141586  W2        3950            0.0000000000
     11849      3950  TIP3      H1             33.0192312922      -26.8932763765       -5.3834541586  W2        3950            0.0000000000
     11850      3950  TIP3      H2             34.1983512922      -27.8353763765       -5.5017641586  W2        3950            0.0000000000
     11851      3951  TIP3      OH2            33.6484812922      -28.9473863765        3.1111858414  W2        3951            0.0000000000
     11852      3951  TIP3      H1             33.7283912922      -28.1839463765        3.6830358414  W2        3951            0.0000000000
     11853      3951  TIP3      H2             33.0472512922      -28.6681463765        2.4206958414  W2        3951            0.0000000000
     11854      3952  TIP3      OH2            25.3965012922      -26.4910263765       -4.0740141586  W2        3952            0.0000000000
     11855      3952  TIP3      H1             25.0660212922      -26.8616863765       -4.8923141586  W2        3952            0.0000000000
     11856      3952  TIP3      H2             25.9849112922      -27.1616263765       -3.7271841586  W2        3952            0.0000000000
     11857      3953  TIP3      OH2            26.7632512922      -23.0629663765       -1.3927941586  W2        3953            0.0000000000
     11858      3953  TIP3      H1             26.6683812922      -23.6416563765       -2.1493341586  W2        3953            0.0000000000
     11859      3953  TIP3      H2             27.4926112922      -23.4343963765       -0.8965141586  W2        3953            0.0000000000
     11860      3954  TIP3      OH2            25.7630512922      -27.7224663765       -0.4405141586  W2        3954            0.0000000000
     11861      3954  TIP3      H1             26.3283012922      -27.6010463765       -1.2033941586  W2        3954            0.0000000000
     11862      3954  TIP3      H2             26.0819412922      -27.0849663765        0.1983358414  W2        3954            0.0000000000
     11863      3955  TIP3      OH2            32.0722712922      -22.2192763765        0.2935358414  W2        3955            0.0000000000
     11864      3955  TIP3      H1             31.8319312922      -21.5569663765        0.9414558414  W2        3955            0.0000000000
     11865      3955  TIP3      H2             31.8740912922      -23.0537563765        0.7184958414  W2        3955            0.0000000000
     11866      3956  TIP3      OH2            26.6431212922      -23.3231963765        4.2766758414  W2        3956            0.0000000000
     11867      3956  TIP3      H1             26.3318712922      -22.5408763765        4.7319958414  W2        3956            0.0000000000
     11868      3956  TIP3      H2             25.9931412922      -23.4762863765        3.5908758414  W2        3956            0.0000000000
     11869      3957  TIP3      OH2            32.6220812922      -27.9593563765       -8.2713941586  W2        3957            0.0000000000
     11870      3957  TIP3      H1             33.2016312922      -27.8093263765       -7.5245041586  W2        3957            0.0000000000
     11871      3957  TIP3      H2             33.0360812922      -27.4886163765       -8.9947541586  W2        3957            0.0000000000
     11872      3958  TIP3      OH2            23.5631112922      -27.1250863765        3.5052458414  W2        3958            0.0000000000
     11873      3958  TIP3      H1             23.6334312922      -26.4744063765        4.2037458414  W2        3958            0.0000000000
     11874      3958  TIP3      H2             22.6723312922      -27.0223363765        3.1703358414  W2        3958            0.0000000000
     11875      3959  TIP3      OH2            30.3485712922      -21.2225063765       -4.8360841586  W2        3959            0.0000000000
     11876      3959  TIP3      H1             30.8223312922      -20.9268763765       -4.0586641586  W2        3959            0.0000000000
     11877      3959  TIP3      H2             29.7855012922      -20.4843463765       -5.0691241586  W2        3959            0.0000000000
     11878      3960  TIP3      OH2            24.8827112922      -21.2516963765        5.0400558414  W2        3960            0.0000000000
     11879      3960  TIP3      H1             24.8902412922      -21.3877263765        4.0926058414  W2        3960            0.0000000000
     11880      3960  TIP3      H2             23.9667512922      -21.3688863765        5.2920558414  W2        3960            0.0000000000
     11881      3961  TIP3      OH2            36.3209212922      -36.2093163765       -8.4584241586  W2        3961            0.0000000000
     11882      3961  TIP3      H1             35.4209912922      -36.0704163765       -8.1633641586  W2        3961            0.0000000000
     11883      3961  TIP3      H2             36.5727612922      -35.3778563765       -8.8602541586  W2        3961            0.0000000000
     11884      3962  TIP3      OH2            24.3867712922      -27.4215963765       -6.4847341586  W2        3962            0.0000000000
     11885      3962  TIP3      H1             24.0949012922      -26.6534263765       -6.9756041586  W2        3962            0.0000000000
     11886      3962  TIP3      H2             23.7122912922      -28.0809763765       -6.6475941586  W2        3962            0.0000000000
     11887      3963  TIP3      OH2            20.4797812922      -25.0586763765        2.3302458414  W2        3963            0.0000000000
     11888      3963  TIP3      H1             19.9786212922      -25.0867363765        1.5152158414  W2        3963            0.0000000000
     11889      3963  TIP3      H2             20.4851512922      -25.9643563765        2.6399758414  W2        3963            0.0000000000
     11890      3964  TIP3      OH2            20.2300512922      -22.2782963765       -0.7857341586  W2        3964            0.0000000000
     11891      3964  TIP3      H1             21.1761112922      -22.4225963765       -0.8047841586  W2        3964            0.0000000000
     11892      3964  TIP3      H2             20.1176812922      -21.4940163765       -0.2486141586  W2        3964            0.0000000000
     11893      3965  TIP3      OH2            29.4063012922      -22.0384063765        3.7727758414  W2        3965            0.0000000000
     11894      3965  TIP3      H1             29.4937612922      -21.2119463765        4.2476858414  W2        3965            0.0000000000
     11895      3965  TIP3      H2             28.5428112922      -22.3680263765        4.0217058414  W2        3965            0.0000000000
     11896      3966  TIP3      OH2            29.8208812922      -18.2660363765       -6.4211641586  W2        3966            0.0000000000
     11897      3966  TIP3      H1             29.7454812922      -18.3873163765       -7.3676441586  W2        3966            0.0000000000
     11898      3966  TIP3      H2             29.8537512922      -17.3167663765       -6.3027041586  W2        3966            0.0000000000
     11899      3967  TIP3      OH2            23.4742612922      -19.4773363765       -4.6402641586  W2        3967            0.0000000000
     11900      3967  TIP3      H1             23.6263012922      -19.8252963765       -3.7616141586  W2        3967            0.0000000000
     11901      3967  TIP3      H2             22.6233012922      -19.8336063765       -4.8955441586  W2        3967            0.0000000000
     11902      3968  TIP3      OH2            32.9224812922      -19.1120163765       -9.4189241586  W2        3968            0.0000000000
     11903      3968  TIP3      H1             33.2973212922      -19.8564063765       -9.8896641586  W2        3968            0.0000000000
     11904      3968  TIP3      H2             32.9268512922      -19.3819563765       -8.5005941586  W2        3968            0.0000000000
     11905      3969  TIP3      OH2            32.5912912922      -19.1863063765       -6.6697041586  W2        3969            0.0000000000
     11906      3969  TIP3      H1             31.6562712922      -19.0861163765       -6.4910041586  W2        3969            0.0000000000
     11907      3969  TIP3      H2             32.8714812922      -19.8957063765       -6.0913841586  W2        3969            0.0000000000
     11908      3970  TIP3      OH2            35.5798812922      -30.1190763765        5.3768558414  W2        3970            0.0000000000
     11909      3970  TIP3      H1             35.1725612922      -29.6385163765        4.6561858414  W2        3970            0.0000000000
     11910      3970  TIP3      H2             35.6204512922      -31.0244763765        5.0689358414  W2        3970            0.0000000000
     11911      3971  TIP3      OH2            22.7288312922      -23.7351363765        3.3735258414  W2        3971            0.0000000000
     11912      3971  TIP3      H1             22.9449612922      -24.0965763765        4.2331058414  W2        3971            0.0000000000
     11913      3971  TIP3      H2             21.8733012922      -24.1097563765        3.1638758414  W2        3971            0.0000000000
     11914      3972  TIP3      OH2            25.3476312922      -35.2650863765       -0.6310541586  W2        3972            0.0000000000
     11915      3972  TIP3      H1             24.4860012922      -35.3522663765       -1.0387641586  W2        3972            0.0000000000
     11916      3972  TIP3      H2             25.3252012922      -34.4090763765       -0.2032941586  W2        3972            0.0000000000
     11917      3973  TIP3      OH2            30.0104112922      -35.5430463765        2.7436458414  W2        3973            0.0000000000
     11918      3973  TIP3      H1             30.4307212922      -35.9583363765        3.4967058414  W2        3973            0.0000000000
     11919      3973  TIP3      H2             29.0773712922      -35.7217163765        2.8608458414  W2        3973            0.0000000000
     11920      3974  TIP3      OH2            33.3369012922      -31.7875263765        3.5970958414  W2        3974            0.0000000000
     11921      3974  TIP3      H1             32.8228512922      -31.9133063765        4.3946958414  W2        3974            0.0000000000
     11922      3974  TIP3      H2             33.1813712922      -30.8752163765        3.3527158414  W2        3974            0.0000000000
     11923      3975  TIP3      OH2            34.0993912922      -26.9265263765      -10.6416041586  W2        3975            0.0000000000
     11924      3975  TIP3      H1             34.1414712922      -27.1491363765      -11.5716041586  W2        3975            0.0000000000
     11925      3975  TIP3      H2             34.9486012922      -26.5278163765      -10.4516141586  W2        3975            0.0000000000
     11926      3976  TIP3      OH2            29.6721412922      -33.0507063765       -9.9712741586  W2        3976            0.0000000000
     11927      3976  TIP3      H1             29.4186212922      -33.0315463765       -9.0484641586  W2        3976            0.0000000000
     11928      3976  TIP3      H2             29.4153512922      -33.9221663765      -10.2726541586  W2        3976            0.0000000000
     11929      3977  TIP3      OH2            25.4386412922      -30.2996363765        0.4639658414  W2        3977            0.0000000000
     11930      3977  TIP3      H1             24.7968512922      -30.3399063765        1.1729758414  W2        3977            0.0000000000
     11931      3977  TIP3      H2             25.4758412922      -29.3731663765        0.2262658414  W2        3977            0.0000000000
     11932      3978  TIP3      OH2            25.4355512922      -30.0786263765       -4.6240341586  W2        3978            0.0000000000
     11933      3978  TIP3      H1             24.5428412922      -30.4190163765       -4.6826541586  W2        3978            0.0000000000
     11934      3978  TIP3      H2             25.8862112922      -30.4555363765       -5.3797141586  W2        3978            0.0000000000
     11935      3979  TIP3      OH2            30.9711012922      -29.6625963765       -5.8069541586  W2        3979            0.0000000000
     11936      3979  TIP3      H1             30.5621312922      -28.8477363765       -6.0984741586  W2        3979            0.0000000000
     11937      3979  TIP3      H2             31.6917212922      -29.8025863765       -6.4212441586  W2        3979            0.0000000000
     11938      3980  TIP3      OH2            30.0732612922      -29.4869563765        5.6811158414  W2        3980            0.0000000000
     11939      3980  TIP3      H1             29.5106412922      -30.1917963765        6.0018958414  W2        3980            0.0000000000
     11940      3980  TIP3      H2             30.8996012922      -29.6077663765        6.1488758414  W2        3980            0.0000000000
     11941      3981  TIP3      OH2            31.9758712922      -30.2165563765       -2.9929841586  W2        3981            0.0000000000
     11942      3981  TIP3      H1             31.7803212922      -29.6108763765       -3.7079241586  W2        3981            0.0000000000
     11943      3981  TIP3      H2             32.1571312922      -31.0500363765       -3.4273541586  W2        3981            0.0000000000
     11944      3982  TIP3      OH2            23.1886912922      -29.9792863765        2.3311658414  W2        3982            0.0000000000
     11945      3982  TIP3      H1             23.1506312922      -29.5791263765        3.1998758414  W2        3982            0.0000000000
     11946      3982  TIP3      H2             22.6978012922      -30.7960463765        2.4214558414  W2        3982            0.0000000000
     11947      3983  TIP3      OH2            26.5544312922      -32.6050563765      -10.8702341586  W2        3983            0.0000000000
     11948      3983  TIP3      H1             26.1235012922      -33.0500463765      -10.1404941586  W2        3983            0.0000000000
     11949      3983  TIP3      H2             25.8363012922      -32.2334263765      -11.3824841586  W2        3983            0.0000000000
     11950      3984  TIP3      OH2            19.7967712922      -32.8631063765       -3.8183641586  W2        3984            0.0000000000
     11951      3984  TIP3      H1             20.4275412922      -32.8918963765       -3.0989741586  W2        3984            0.0000000000
     11952      3984  TIP3      H2             20.2462012922      -33.2882363765       -4.5487741586  W2        3984            0.0000000000
     11953      3985  TIP3      OH2            21.0709812922      -32.1169063765       -8.3943241586  W2        3985            0.0000000000
     11954      3985  TIP3      H1             21.5451512922      -31.5259163765       -8.9792341586  W2        3985            0.0000000000
     11955      3985  TIP3      H2             20.3536212922      -31.5866163765       -8.0473141586  W2        3985            0.0000000000
     11956      3986  TIP3      OH2            31.2397912922      -28.5784263765        1.6782558414  W2        3986            0.0000000000
     11957      3986  TIP3      H1             31.5632712922      -29.2094563765        1.0353058414  W2        3986            0.0000000000
     11958      3986  TIP3      H2             30.7997212922      -29.1132063765        2.3389958414  W2        3986            0.0000000000
     11959      3987  TIP3      OH2            28.0170812922      -32.6508763765       -3.5376241586  W2        3987            0.0000000000
     11960      3987  TIP3      H1             27.1061912922      -32.5941963765       -3.2490241586  W2        3987            0.0000000000
     11961      3987  TIP3      H2             28.5223712922      -32.7113263765       -2.7269041586  W2        3987            0.0000000000
     11962      3988  TIP3      OH2            22.8454212922      -31.0222463765       -4.7108641586  W2        3988            0.0000000000
     11963      3988  TIP3      H1             21.9562212922      -30.9226963765       -5.0509041586  W2        3988            0.0000000000
     11964      3988  TIP3      H2             23.1419112922      -31.8639463765       -5.0570741586  W2        3988            0.0000000000
     11965      3989  TIP3      OH2            26.4986012922      -31.0219863765       -7.0544041586  W2        3989            0.0000000000
     11966      3989  TIP3      H1             27.4301512922      -30.8929863765       -6.8760941586  W2        3989            0.0000000000
     11967      3989  TIP3      H2             26.2836312922      -30.3525563765       -7.7039341586  W2        3989            0.0000000000
     11968      3990  TIP3      OH2            32.4222712922      -33.4162463765       -0.2734441586  W2        3990            0.0000000000
     11969      3990  TIP3      H1             31.7454312922      -33.2849363765        0.3905258414  W2        3990            0.0000000000
     11970      3990  TIP3      H2             31.9367612922      -33.5712963765       -1.0836741586  W2        3990            0.0000000000
     11971      3991  TIP3      OH2            25.1726212922      -29.8277663765       -9.4877941586  W2        3991            0.0000000000
     11972      3991  TIP3      H1             24.6301312922      -30.2073863765      -10.1790341586  W2        3991            0.0000000000
     11973      3991  TIP3      H2             26.0061112922      -29.6332963765       -9.9163841586  W2        3991            0.0000000000
     11974      3992  TIP3      OH2            35.7097812922      -17.7447063765        6.0033158414  W2        3992            0.0000000000
     11975      3992  TIP3      H1             35.9096512922      -17.3205163765        5.1688458414  W2        3992            0.0000000000
     11976      3992  TIP3      H2             36.3651512922      -17.4008863765        6.6103558414  W2        3992            0.0000000000
     11977      3993  TIP3      OH2            23.3077612922      -25.2705763765        5.6113658414  W2        3993            0.0000000000
     11978      3993  TIP3      H1             24.0400012922      -25.0159863765        6.1728158414  W2        3993            0.0000000000
     11979      3993  TIP3      H2             22.5276312922      -25.0660363765        6.1269058414  W2        3993            0.0000000000
     11980      3994  TIP3      OH2            29.3370512922      -29.8635763765       -1.6506641586  W2        3994            0.0000000000
     11981      3994  TIP3      H1             29.9013912922      -30.4099163765       -2.1977041586  W2        3994            0.0000000000
     11982      3994  TIP3      H2             29.1893912922      -30.3853863765       -0.8619041586  W2        3994            0.0000000000
     11983      3995  TIP3      OH2            24.3390212922      -33.7269663765       -5.2321841586  W2        3995            0.0000000000
     11984      3995  TIP3      H1             24.0219712922      -34.6294363765       -5.2676441586  W2        3995            0.0000000000
     11985      3995  TIP3      H2             25.1204312922      -33.7252263765       -5.7850241586  W2        3995            0.0000000000
     11986      3996  TIP3      OH2            27.9636412922      -31.4749663765        0.7633758414  W2        3996            0.0000000000
     11987      3996  TIP3      H1             27.1281712922      -31.0210163765        0.8736158414  W2        3996            0.0000000000
     11988      3996  TIP3      H2             28.4877012922      -31.1991163765        1.5153658414  W2        3996            0.0000000000
     11989      3997  TIP3      OH2            28.5079012922      -25.2621963765       -7.5519841586  W2        3997            0.0000000000
     11990      3997  TIP3      H1             27.7630012922      -25.7696663765       -7.8741941586  W2        3997            0.0000000000
     11991      3997  TIP3      H2             28.3736212922      -25.2133963765       -6.6055041586  W2        3997            0.0000000000
     11992      3998  TIP3      OH2            35.6577912922      -26.1293763765        1.2347758414  W2        3998            0.0000000000
     11993      3998  TIP3      H1             36.2996712922      -25.6727463765        0.6909958414  W2        3998            0.0000000000
     11994      3998  TIP3      H2             34.8274812922      -26.0161363765        0.7721858414  W2        3998            0.0000000000
     11995      3999  TIP3      OH2            32.4055812922      -32.4482063765       -9.3527241586  W2        3999            0.0000000000
     11996      3999  TIP3      H1             31.4670012922      -32.3366463765       -9.5038441586  W2        3999            0.0000000000
     11997      3999  TIP3      H2             32.7027912922      -31.5915163765       -9.0461541586  W2        3999            0.0000000000
     11998      4000  TIP3      OH2            30.0271112922      -25.0778663765        3.6849258414  W2        4000            0.0000000000
     11999      4000  TIP3      H1             29.6817212922      -25.4596263765        4.4918858414  W2        4000            0.0000000000
     12000      4000  TIP3      H2             29.8271212922      -24.1445063765        3.7562158414  W2        4000            0.0000000000
     12001      4001  TIP3      OH2            33.1239312922      -30.5809363765       -7.6919841586  W2        4001            0.0000000000
     12002      4001  TIP3      H1             34.0158312922      -30.7184363765       -7.3728641586  W2        4001            0.0000000000
     12003      4001  TIP3      H2             33.1802912922      -29.7903263765       -8.2286341586  W2        4001            0.0000000000
     12004      4002  TIP3      OH2            23.6327312922      -25.9671963765       -1.7821941586  W2        4002            0.0000000000
     12005      4002  TIP3      H1             24.3774512922      -25.9696263765       -2.3835441586  W2        4002            0.0000000000
     12006      4002  TIP3      H2             23.7103912922      -26.7908163765       -1.3006841586  W2        4002            0.0000000000
     12007      4003  TIP3      OH2            30.6333112922      -23.8037663765       -8.5265241586  W2        4003            0.0000000000
     12008      4003  TIP3      H1             30.3381512922      -22.9769763765       -8.1450441586  W2        4003            0.0000000000
     12009      4003  TIP3      H2             29.9303112922      -24.4230763765       -8.3303841586  W2        4003            0.0000000000
     12010      4004  TIP3      OH2            20.6407012922      -27.5065063765        3.5326558414  W2        4004            0.0000000000
     12011      4004  TIP3      H1             20.8635612922      -27.9245463765        4.3644058414  W2        4004            0.0000000000
     12012      4004  TIP3      H2             20.0387112922      -28.1190063765        3.1099358414  W2        4004            0.0000000000
     12013      4005  TIP3      OH2            27.6571912922      -27.9895163765        5.7456258414  W2        4005            0.0000000000
     12014      4005  TIP3      H1             27.3612712922      -28.1552163765        4.8505358414  W2        4005            0.0000000000
     12015      4005  TIP3      H2             28.5887112922      -28.2094863765        5.7350158414  W2        4005            0.0000000000
     12016      4006  TIP3      OH2            32.2774712922      -22.6163163765        3.6354258414  W2        4006            0.0000000000
     12017      4006  TIP3      H1             31.3769012922      -22.4330563765        3.3678158414  W2        4006            0.0000000000
     12018      4006  TIP3      H2             32.3115812922      -22.3573863765        4.5563058414  W2        4006            0.0000000000
     12019      4007  TIP3      OH2            36.3039712922      -21.5854863765       -7.5321041586  W2        4007            0.0000000000
     12020      4007  TIP3      H1             35.9310812922      -22.4111063765       -7.2230441586  W2        4007            0.0000000000
     12021      4007  TIP3      H2             36.5813212922      -21.7685463765       -8.4297641586  W2        4007            0.0000000000
     12022      4008  TIP3      OH2            33.4643612922      -26.7775363765       -0.5109141586  W2        4008            0.0000000000
     12023      4008  TIP3      H1             32.5360512922      -27.0093463765       -0.5379841586  W2        4008            0.0000000000
     12024      4008  TIP3      H2             33.9154712922      -27.5545563765       -0.8410341586  W2        4008            0.0000000000
     12025      4009  TIP3      OH2            26.0076712922      -22.4493763765       -4.3780441586  W2        4009            0.0000000000
     12026      4009  TIP3      H1             26.5348912922      -21.6759363765       -4.5781641586  W2        4009            0.0000000000
     12027      4009  TIP3      H2             25.1275212922      -22.2244563765       -4.6796441586  W2        4009            0.0000000000
     12028      4010  TIP3      OH2            21.7624412922      -27.5869663765       -9.7908041586  W2        4010            0.0000000000
     12029      4010  TIP3      H1             22.3784312922      -26.9602463765       -9.4113241586  W2        4010            0.0000000000
     12030      4010  TIP3      H2             20.9007012922      -27.2709863765       -9.5191541586  W2        4010            0.0000000000
     12031      4011  TIP3      OH2            27.4349012922      -24.7863863765       -4.8016141586  W2        4011            0.0000000000
     12032      4011  TIP3      H1             27.1939012922      -23.8609463765       -4.7600841586  W2        4011            0.0000000000
     12033      4011  TIP3      H2             26.6942612922      -25.2452563765       -4.4052241586  W2        4011            0.0000000000
     12034      4012  TIP3      OH2            27.9495612922      -20.6370263765        1.5134958414  W2        4012            0.0000000000
     12035      4012  TIP3      H1             28.3120312922      -19.7824663765        1.2799358414  W2        4012            0.0000000000
     12036      4012  TIP3      H2             28.4810812922      -20.9288663765        2.2541258414  W2        4012            0.0000000000
     12037      4013  TIP3      OH2            26.1179812922      -19.7646263765       -5.2563941586  W2        4013            0.0000000000
     12038      4013  TIP3      H1             25.1680312922      -19.6588863765       -5.2050641586  W2        4013            0.0000000000
     12039      4013  TIP3      H2             26.4697912922      -18.9438863765       -4.9116441586  W2        4013            0.0000000000
     12040      4014  TIP3      OH2            31.4936412922      -24.5379563765        1.2140558414  W2        4014            0.0000000000
     12041      4014  TIP3      H1             31.0677712922      -24.7657863765        2.0404558414  W2        4014            0.0000000000
     12042      4014  TIP3      H2             32.0742212922      -25.2767763765        1.0315858414  W2        4014            0.0000000000
     12043      4015  TIP3      OH2            33.6965312922      -23.6089063765       -9.7120441586  W2        4015            0.0000000000
     12044      4015  TIP3      H1             34.0498412922      -23.9889263765       -8.9076941586  W2        4015            0.0000000000
     12045      4015  TIP3      H2             32.7478812922      -23.7024263765       -9.6251141586  W2        4015            0.0000000000
     12046      4016  TIP3      OH2            34.1520612922      -19.9860063765        3.6835358414  W2        4016            0.0000000000
     12047      4016  TIP3      H1             33.5503812922      -20.5417163765        3.1881658414  W2        4016            0.0000000000
     12048      4016  TIP3      H2             34.4334312922      -19.3190263765        3.0572758414  W2        4016            0.0000000000
     12049      4017  TIP3      OH2            22.2746512922      -32.7532363765        3.0907958414  W2        4017            0.0000000000
     12050      4017  TIP3      H1             21.3818812922      -32.4146963765        3.0231958414  W2        4017            0.0000000000
     12051      4017  TIP3      H2             22.1759312922      -33.6086263765        3.5088758414  W2        4017            0.0000000000
     12052      4018  TIP3      OH2            34.5624612922      -24.9367063765       -7.4852541586  W2        4018            0.0000000000
     12053      4018  TIP3      H1             34.2852212922      -25.6647763765       -6.9291441586  W2        4018            0.0000000000
     12054      4018  TIP3      H2             35.4897612922      -24.8175063765       -7.2799941586  W2        4018            0.0000000000
     12055      4019  TIP3      OH2            21.9258512922      -20.9487963765        1.5257358414  W2        4019            0.0000000000
     12056      4019  TIP3      H1             22.1428812922      -21.8805563765        1.4947058414  W2        4019            0.0000000000
     12057      4019  TIP3      H2             22.1722012922      -20.6742963765        2.4090158414  W2        4019            0.0000000000
     12058      4020  TIP3      OH2            27.7873112922      -22.4972963765      -11.2650441586  W2        4020            0.0000000000
     12059      4020  TIP3      H1             28.0262912922      -23.2454863765      -11.8121541586  W2        4020            0.0000000000
     12060      4020  TIP3      H2             27.5184412922      -22.8851263765      -10.4322641586  W2        4020            0.0000000000
     12061      4021  TIP3      OH2            26.7243712922      -22.9269163765       -8.8087841586  W2        4021            0.0000000000
     12062      4021  TIP3      H1             26.8711712922      -23.4469363765       -8.0186941586  W2        4021            0.0000000000
     12063      4021  TIP3      H2             26.7215412922      -22.0201563765       -8.5021941586  W2        4021            0.0000000000
     12064      4022  TIP3      OH2            23.1774812922      -25.6745863765       -8.2982441586  W2        4022            0.0000000000
     12065      4022  TIP3      H1             22.4914112922      -25.3223363765       -7.7312741586  W2        4022            0.0000000000
     12066      4022  TIP3      H2             23.7002712922      -24.9116263765       -8.5448141586  W2        4022            0.0000000000
     12067      4023  TIP3      OH2            31.0089912922      -33.0122063765        1.9806558414  W2        4023            0.0000000000
     12068      4023  TIP3      H1             31.7077812922      -32.9383363765        2.6306258414  W2        4023            0.0000000000
     12069      4023  TIP3      H2             30.6281312922      -33.8767063765        2.1349458414  W2        4023            0.0000000000
     12070      4024  TIP3      OH2            31.7934812922      -33.3600363765       -6.9221141586  W2        4024            0.0000000000
     12071      4024  TIP3      H1             32.0133112922      -32.8884963765       -7.7255741586  W2        4024            0.0000000000
     12072      4024  TIP3      H2             32.3518812922      -32.9657763765       -6.2520541586  W2        4024            0.0000000000
     12073      4025  TIP3      OH2            29.4620912922      -21.2295563765       -8.0593641586  W2        4025            0.0000000000
     12074      4025  TIP3      H1             28.6457012922      -20.7325863765       -8.0069341586  W2        4025            0.0000000000
     12075      4025  TIP3      H2             29.9917212922      -20.7542063765       -8.6994841586  W2        4025            0.0000000000
     12076      4026  TIP3      OH2            28.9934712922      -31.6321563765       -6.0872741586  W2        4026            0.0000000000
     12077      4026  TIP3      H1             29.8057312922      -31.1278363765       -6.0411041586  W2        4026            0.0000000000
     12078      4026  TIP3      H2             28.7487712922      -31.7771863765       -5.1733141586  W2        4026            0.0000000000
     12079      4027  TIP3      OH2            29.5291112922      -30.6458863765        3.0973858414  W2        4027            0.0000000000
     12080      4027  TIP3      H1             29.6481412922      -30.0723463765        3.8544258414  W2        4027            0.0000000000
     12081      4027  TIP3      H2             30.1845712922      -31.3339463765        3.2121658414  W2        4027            0.0000000000
     12082      4028  TIP3      OH2            29.8771412922      -34.5508563765       -5.1491641586  W2        4028            0.0000000000
     12083      4028  TIP3      H1             29.5304912922      -33.9337963765       -4.5047341586  W2        4028            0.0000000000
     12084      4028  TIP3      H2             30.5358312922      -34.0502863765       -5.6306141586  W2        4028            0.0000000000
     12085      4029  TIP3      OH2            26.8004012922      -20.1858363765       -8.0776741586  W2        4029            0.0000000000
     12086      4029  TIP3      H1             26.9612712922      -19.3860863765       -8.5784141586  W2        4029            0.0000000000
     12087      4029  TIP3      H2             26.6031812922      -19.8792363765       -7.1926141586  W2        4029            0.0000000000
     12088      4030  TIP3      OH2            25.5348412922      -33.4879163765       -8.4619141586  W2        4030            0.0000000000
     12089      4030  TIP3      H1             25.4513212922      -32.5996063765       -8.1152741586  W2        4030            0.0000000000
     12090      4030  TIP3      H2             26.4248712922      -33.7532463765       -8.2302341586  W2        4030            0.0000000000
     12091      4031  TIP3      OH2            35.7336912922      -32.7388563765        3.9323558414  W2        4031            0.0000000000
     12092      4031  TIP3      H1             34.8172712922      -32.4766863765        3.8447258414  W2        4031            0.0000000000
     12093      4031  TIP3      H2             36.0691912922      -32.7419563765        3.0358858414  W2        4031            0.0000000000
     12094      4032  TIP3      OH2            34.3357912922      -28.9887563765       -1.9719141586  W2        4032            0.0000000000
     12095      4032  TIP3      H1             33.5382312922      -29.4037363765       -2.3004141586  W2        4032            0.0000000000
     12096      4032  TIP3      H2             34.7809012922      -29.6793863765       -1.4808641586  W2        4032            0.0000000000
     12097      4033  TIP3      OH2            23.7933712922      -23.0606963765       -9.4014641586  W2        4033            0.0000000000
     12098      4033  TIP3      H1             24.3855212922      -22.3612163765       -9.1252241586  W2        4033            0.0000000000
     12099      4033  TIP3      H2             24.2526712922      -23.4937463765      -10.1210041586  W2        4033            0.0000000000
     12100      4034  TIP3      OH2            22.1092912922      -30.3963963765      -10.2855241586  W2        4034            0.0000000000
     12101      4034  TIP3      H1             22.0645512922      -29.4570863765      -10.1068241586  W2        4034            0.0000000000
     12102      4034  TIP3      H2             21.2216112922      -30.6319063765      -10.5553141586  W2        4034            0.0000000000
     12103      4035  TIP3      OH2            35.4222512922      -19.7325063765       -0.3495641586  W2        4035            0.0000000000
     12104      4035  TIP3      H1             35.2666812922      -19.0540663765       -1.0066341586  W2        4035            0.0000000000
     12105      4035  TIP3      H2             36.3548912922      -19.6605763765       -0.1465041586  W2        4035            0.0000000000
     12106      4036  TIP3      OH2            22.9174912922      -35.6147363765       -1.6124241586  W2        4036            0.0000000000
     12107      4036  TIP3      H1             22.6884712922      -35.5554863765       -2.5399241586  W2        4036            0.0000000000
     12108      4036  TIP3      H2             22.4748312922      -36.4061863765       -1.3060141586  W2        4036            0.0000000000
     12109      4037  TIP3      OH2            21.8478212922      -21.6740263765       -5.4518441586  W2        4037            0.0000000000
     12110      4037  TIP3      H1             21.0156812922      -21.2017563765       -5.4247041586  W2        4037            0.0000000000
     12111      4037  TIP3      H2             22.3936512922      -21.1642663765       -6.0505341586  W2        4037            0.0000000000
     12112      4038  TIP3      OH2            21.1361912922      -19.0616563765        5.8779558414  W2        4038            0.0000000000
     12113      4038  TIP3      H1             21.6764112922      -19.2782563765        6.6378758414  W2        4038            0.0000000000
     12114      4038  TIP3      H2             20.6549912922      -19.8670563765        5.6882058414  W2        4038            0.0000000000
     12115      4039  TIP3      OH2            25.7335312922      -20.1422163765        7.4983758414  W2        4039            0.0000000000
     12116      4039  TIP3      H1             26.5012512922      -20.6011363765        7.8392958414  W2        4039            0.0000000000
     12117      4039  TIP3      H2             25.7121512922      -20.3682363765        6.5684958414  W2        4039            0.0000000000
     12118      4040  TIP3      OH2            29.8254912922      -20.6341563765      -11.1264441586  W2        4040            0.0000000000
     12119      4040  TIP3      H1             29.1815912922      -21.2652963765      -10.8050741586  W2        4040            0.0000000000
     12120      4040  TIP3      H2             30.5873212922      -21.1653563765      -11.3580941586  W2        4040            0.0000000000
     12121      4041  TIP3      OH2            32.3104012922      -21.7621063765        6.2275258414  W2        4041            0.0000000000
     12122      4041  TIP3      H1             31.9593512922      -22.6188063765        6.4705658414  W2        4041            0.0000000000
     12123      4041  TIP3      H2             33.0367212922      -21.6194363765        6.8344258414  W2        4041            0.0000000000
     12124      4042  TIP3      OH2            34.4297812922      -20.8171663765      -10.8926441586  W2        4042            0.0000000000
     12125      4042  TIP3      H1             34.7128212922      -21.6116463765      -10.4399541586  W2        4042            0.0000000000
     12126      4042  TIP3      H2             35.1695712922      -20.5840663765      -11.4535341586  W2        4042            0.0000000000
     12127      4043  TIP3      OH2            21.0431412922      -25.2512463765        6.8323858414  W2        4043            0.0000000000
     12128      4043  TIP3      H1             21.1871912922      -26.1531763765        6.5460558414  W2        4043            0.0000000000
     12129      4043  TIP3      H2             20.2708812922      -24.9650363765        6.3446158414  W2        4043            0.0000000000
     12130      4044  TIP3      OH2            25.3845112922      -24.9076763765      -11.0351541586  W2        4044            0.0000000000
     12131      4044  TIP3      H1             25.4489212922      -25.7017163765      -10.5045141586  W2        4044            0.0000000000
     12132      4044  TIP3      H2             26.0374312922      -25.0263963765      -11.7249541586  W2        4044            0.0000000000
     12133      4045  TIP3      OH2            27.6987512922      -25.2814363765        6.2650258414  W2        4045            0.0000000000
     12134      4045  TIP3      H1             27.3701312922      -25.0106263765        5.4077658414  W2        4045            0.0000000000
     12135      4045  TIP3      H2             27.8505712922      -26.2224563765        6.1775258414  W2        4045            0.0000000000
     12136      4046  TIP3      OH2            30.7368512922      -23.8605063765      -11.2993541586  W2        4046            0.0000000000
     12137      4046  TIP3      H1             30.4682612922      -23.6802963765      -10.3984641586  W2        4046            0.0000000000
     12138      4046  TIP3      H2             30.5304112922      -24.7858863765      -11.4307741586  W2        4046            0.0000000000
     12139      4047  TIP3      OH2            33.4332712922      -25.3657063765        3.6482558414  W2        4047            0.0000000000
     12140      4047  TIP3      H1             34.1787512922      -24.7773363765        3.5286558414  W2        4047            0.0000000000
     12141      4047  TIP3      H2             32.6759512922      -24.7837363765        3.7115658414  W2        4047            0.0000000000
     12142      4048  TIP3      OH2            21.8757912922      -28.0509163765        6.2523158414  W2        4048            0.0000000000
     12143      4048  TIP3      H1             22.2839112922      -28.9082563765        6.1313758414  W2        4048            0.0000000000
     12144      4048  TIP3      H2             21.6155512922      -28.0367863765        7.1733458414  W2        4048            0.0000000000
     12145      4049  TIP3      OH2            26.5338912922      -26.9350563765       -8.7293541586  W2        4049            0.0000000000
     12146      4049  TIP3      H1             26.0740912922      -27.4192263765       -8.0435041586  W2        4049            0.0000000000
     12147      4049  TIP3      H2             26.7887612922      -27.6035163765       -9.3653041586  W2        4049            0.0000000000
     12148      4050  TIP3      OH2            25.8228212922      -29.0423463765        3.6266058414  W2        4050            0.0000000000
     12149      4050  TIP3      H1             25.2044312922      -28.3676863765        3.9070758414  W2        4050            0.0000000000
     12150      4050  TIP3      H2             26.1669412922      -28.7209563765        2.7932258414  W2        4050            0.0000000000
     12151      4051  TIP3      OH2            27.6049312922      -28.6918763765      -10.4670341586  W2        4051            0.0000000000
     12152      4051  TIP3      H1             27.4244312922      -28.8467563765      -11.3942041586  W2        4051            0.0000000000
     12153      4051  TIP3      H2             28.5549812922      -28.5840063765      -10.4222441586  W2        4051            0.0000000000
     12154      4052  TIP3      OH2            30.8426412922      -26.5708163765        6.9040858414  W2        4052            0.0000000000
     12155      4052  TIP3      H1             31.7957612922      -26.4869063765        6.8766858414  W2        4052            0.0000000000
     12156      4052  TIP3      H2             30.6821012922      -27.2826363765        7.5235758414  W2        4052            0.0000000000
     12157      4053  TIP3      OH2            26.1621912922      -31.6872663765        4.7089158414  W2        4053            0.0000000000
     12158      4053  TIP3      H1             26.3122812922      -32.4161363765        4.1068858414  W2        4053            0.0000000000
     12159      4053  TIP3      H2             26.1644312922      -30.9100963765        4.1501358414  W2        4053            0.0000000000
     12160      4054  TIP3      OH2            26.5747612922      -33.3176863765        2.2016558414  W2        4054            0.0000000000
     12161      4054  TIP3      H1             27.1105112922      -32.8660163765        1.5495858414  W2        4054            0.0000000000
     12162      4054  TIP3      H2             25.7227212922      -33.4257063765        1.7790658414  W2        4054            0.0000000000
     12163      4055  TIP3      OH2            28.1566012922      -27.8780663765        2.4411758414  W2        4055            0.0000000000
     12164      4055  TIP3      H1             28.9070812922      -28.0343163765        1.8679558414  W2        4055            0.0000000000
     12165      4055  TIP3      H2             27.8174312922      -27.0264063765        2.1657258414  W2        4055            0.0000000000
     12166      4056  TIP3      OH2            32.5722212922      -30.0628863765        7.4697058414  W2        4056            0.0000000000
     12167      4056  TIP3      H1             32.7643512922      -30.9939463765        7.3581558414  W2        4056            0.0000000000
     12168      4056  TIP3      H2             33.4298512922      -29.6379363765        7.4592458414  W2        4056            0.0000000000
     12169      4057  TIP3      OH2            33.8889412922      -27.2743663765        5.5469758414  W2        4057            0.0000000000
     12170      4057  TIP3      H1             33.6074412922      -26.5649063765        4.9693558414  W2        4057            0.0000000000
     12171      4057  TIP3      H2             34.8313712922      -27.3470663765        5.3960958414  W2        4057            0.0000000000
     12172      4058  TIP3      OH2            24.6408212922      -30.4889163765        6.6204758414  W2        4058            0.0000000000
     12173      4058  TIP3      H1             23.8737212922      -31.0214363765        6.4102358414  W2        4058            0.0000000000
     12174      4058  TIP3      H2             25.3197212922      -30.7988763765        6.0211058414  W2        4058            0.0000000000
     12175      4059  TIP3      OH2            27.3803112922      -35.8611163765        2.6330158414  W2        4059            0.0000000000
     12176      4059  TIP3      H1             27.2822712922      -34.9147963765        2.5276358414  W2        4059            0.0000000000
     12177      4059  TIP3      H2             26.6379312922      -36.2337363765        2.1573658414  W2        4059            0.0000000000
     12178      4060  TIP3      OH2            28.6443612922      -31.5395763765        6.1968558414  W2        4060            0.0000000000
     12179      4060  TIP3      H1             28.4089012922      -31.7589063765        7.0983458414  W2        4060            0.0000000000
     12180      4060  TIP3      H2             27.8610512922      -31.7464563765        5.6871058414  W2        4060            0.0000000000
     12181      4061  TIP3      OH2            31.3600212922      -32.4122263765        5.2722058414  W2        4061            0.0000000000
     12182      4061  TIP3      H1             30.4125612922      -32.3802563765        5.4045358414  W2        4061            0.0000000000
     12183      4061  TIP3      H2             31.6726912922      -33.0375163765        5.9260258414  W2        4061            0.0000000000
     12184      4062  TIP3      OH2            32.9941712922      -33.7781163765        7.2773958414  W2        4062            0.0000000000
     12185      4062  TIP3      H1             32.8973512922      -34.7303863765        7.2715858414  W2        4062            0.0000000000
     12186      4062  TIP3      H2             32.6724812922      -33.5094363765        8.1379458414  W2        4062            0.0000000000
     12187      4063  TIP3      OH2            22.8211012922      -32.5685363765        6.3249458414  W2        4063            0.0000000000
     12188      4063  TIP3      H1             23.0328412922      -33.2749263765        5.7146958414  W2        4063            0.0000000000
     12189      4063  TIP3      H2             22.7098512922      -33.0059363765        7.1690658414  W2        4063            0.0000000000
     12190      4064  TIP3      OH2            27.6021212922      -36.5673763765        5.3042958414  W2        4064            0.0000000000
     12191      4064  TIP3      H1             28.3139612922      -37.2071563765        5.2902058414  W2        4064            0.0000000000
     12192      4064  TIP3      H2             27.5011612922      -36.3005463765        4.3906058414  W2        4064            0.0000000000
     12193      4065  TIP3      OH2            27.9558712922      -34.8845363765        7.3579258414  W2        4065            0.0000000000
     12194      4065  TIP3      H1             27.8240912922      -35.3601563765        6.5377758414  W2        4065            0.0000000000
     12195      4065  TIP3      H2             27.3566112922      -34.1401763765        7.3026358414  W2        4065            0.0000000000
     12196      4066  TIP3      OH2            27.5021012922      -18.0015063765       -9.4656741586  W2        4066            0.0000000000
     12197      4066  TIP3      H1             28.4351712922      -17.8436363765       -9.3218341586  W2        4066            0.0000000000
     12198      4066  TIP3      H2             27.2379812922      -17.3262063765      -10.0905241586  W2        4066            0.0000000000
     12199      4067  TIP3      OH2            21.0705912922      -23.3651263765       -9.9828641586  W2        4067            0.0000000000
     12200      4067  TIP3      H1             21.9845112922      -23.2862363765       -9.7094741586  W2        4067            0.0000000000
     12201      4067  TIP3      H2             21.0779012922      -24.0521663765      -10.6493041586  W2        4067            0.0000000000
     12202      4068  TIP3      OH2            19.7196512922      -17.9722763765       -4.9054741586  W2        4068            0.0000000000
     12203      4068  TIP3      H1             19.0723612922      -18.4341063765       -5.4383541586  W2        4068            0.0000000000
     12204      4068  TIP3      H2             20.0741112922      -18.6439463765       -4.3228541586  W2        4068            0.0000000000
     12205      4069  TIP3      OH2            20.5895712922      -19.8915763765       -3.1008541586  W2        4069            0.0000000000
     12206      4069  TIP3      H1             20.2552512922      -20.7718463765       -2.9288341586  W2        4069            0.0000000000
     12207      4069  TIP3      H2             20.8118112922      -19.5460763765       -2.2362941586  W2        4069            0.0000000000
     12208      4070  TIP3      OH2            36.1520712922      -23.7250163765        7.4395658414  W2        4070            0.0000000000
     12209      4070  TIP3      H1             35.2861812922      -23.8300463765        7.8337958414  W2        4070            0.0000000000
     12210      4070  TIP3      H2             36.5286612922      -22.9666863765        7.8860358414  W2        4070            0.0000000000
     12211      4071  TIP3      OH2            36.0929512922      -21.7524063765        2.0319858414  W2        4071            0.0000000000
     12212      4071  TIP3      H1             35.4454812922      -21.4272563765        2.6575058414  W2        4071            0.0000000000
     12213      4071  TIP3      H2             35.5753512922      -22.1926363765        1.3578158414  W2        4071            0.0000000000
     12214      4072  TIP3      OH2            36.4648112922      -30.2744963765      -10.2807741586  W2        4072            0.0000000000
     12215      4072  TIP3      H1             36.5612512922      -29.6077963765      -10.9608041586  W2        4072            0.0000000000
     12216      4072  TIP3      H2             36.3247712922      -31.0898663765      -10.7622241586  W2        4072            0.0000000000
     12217      4073  TIP3      OH2            35.6342812922      -28.8942563765       -4.6597441586  W2        4073            0.0000000000
     12218      4073  TIP3      H1             35.4841612922      -29.8393963765       -4.6799641586  W2        4073            0.0000000000
     12219      4073  TIP3      H2             35.2807312922      -28.6131163765       -3.8158341586  W2        4073            0.0000000000
     12220      4074  TIP3      OH2            20.6695212922      -26.8160363765       -0.6493641586  W2        4074            0.0000000000
     12221      4074  TIP3      H1             20.8538112922      -26.8978663765       -1.5850741586  W2        4074            0.0000000000
     12222      4074  TIP3      H2             21.5188112922      -26.9403363765       -0.2257241586  W2        4074            0.0000000000
     12223      4075  TIP3      OH2            36.4905712922      -26.9239263765        4.9790858414  W2        4075            0.0000000000
     12224      4075  TIP3      H1             37.0733012922      -27.6586963765        5.1708058414  W2        4075            0.0000000000
     12225      4075  TIP3      H2             37.0545012922      -26.1518963765        5.0256658414  W2        4075            0.0000000000
     12226      4076  TIP3      OH2            35.7121912922      -32.8665163765      -11.1632241586  W2        4076            0.0000000000
     12227      4076  TIP3      H1             36.3227712922      -33.2378363765      -10.5264041586  W2        4076            0.0000000000
     12228      4076  TIP3      H2             34.8753412922      -33.2878263765      -10.9672241586  W2        4076            0.0000000000
     12229      4077  TIP3      OH2            35.3447612922      -31.3116763765       -6.1972341586  W2        4077            0.0000000000
     12230      4077  TIP3      H1             35.6244712922      -32.2186363765       -6.0730641586  W2        4077            0.0000000000
     12231      4077  TIP3      H2             36.1039312922      -30.8775263765       -6.5863141586  W2        4077            0.0000000000
     12232      4078  TIP3      OH2            35.9565912922      -30.7299363765       -0.7613441586  W2        4078            0.0000000000
     12233      4078  TIP3      H1             36.8893912922      -30.5179463765       -0.7957441586  W2        4078            0.0000000000
     12234      4078  TIP3      H2             35.7213412922      -30.6287263765        0.1609558414  W2        4078            0.0000000000
     12235      4079  TIP3      OH2            35.9857812922      -29.9934063765        2.0145958414  W2        4079            0.0000000000
     12236      4079  TIP3      H1             35.1429112922      -29.7253663765        2.3805758414  W2        4079            0.0000000000
     12237      4079  TIP3      H2             36.4282112922      -29.1712163765        1.8037058414  W2        4079            0.0000000000
     12238      4080  TIP3      OH2            20.2670012922      -31.5455363765        5.4915158414  W2        4080            0.0000000000
     12239      4080  TIP3      H1             21.1864912922      -31.6677063765        5.7278258414  W2        4080            0.0000000000
     12240      4080  TIP3      H2             19.8174512922      -32.2955663765        5.8808658414  W2        4080            0.0000000000
     12241      4081  TIP3      OH2            35.9582412922      -34.0487463765       -6.1490341586  W2        4081            0.0000000000
     12242      4081  TIP3      H1             36.1407412922      -34.4975963765       -5.3235341586  W2        4081            0.0000000000
     12243      4081  TIP3      H2             35.3585312922      -34.6333063765       -6.6125741586  W2        4081            0.0000000000
     12244      4082  TIP3      OH2            21.4882512922      -33.2333763765       -1.6171941586  W2        4082            0.0000000000
     12245      4082  TIP3      H1             21.9334112922      -34.0251263765       -1.3152241586  W2        4082            0.0000000000
     12246      4082  TIP3      H2             21.9545512922      -32.5168563765       -1.1866341586  W2        4082            0.0000000000
     12247      4083  TIP3      OH2            19.7922812922      -30.2340763765       -0.5481741586  W2        4083            0.0000000000
     12248      4083  TIP3      H1             20.2842612922      -30.4550263765       -1.3389741586  W2        4083            0.0000000000
     12249      4083  TIP3      H2             20.1543712922      -29.3937363765       -0.2672241586  W2        4083            0.0000000000
     12250      4084  TIP3      OH2            20.1059312922      -33.9761663765       -6.4939341586  W2        4084            0.0000000000
     12251      4084  TIP3      H1             19.1807712922      -33.7675063765       -6.6233841586  W2        4084            0.0000000000
     12252      4084  TIP3      H2             20.5599212922      -33.4920863765       -7.1837041586  W2        4084            0.0000000000
     12253      4085  TIP3      OH2            34.8766512922      -18.9919963765       -4.5481941586  W2        4085            0.0000000000
     12254      4085  TIP3      H1             35.5289412922      -19.3397863765       -5.1562841586  W2        4085            0.0000000000
     12255      4085  TIP3      H2             35.3870312922      -18.5036763765       -3.9022241586  W2        4085            0.0000000000
     12256      4086  TIP3      OH2            20.0694712922      -35.2382663765        1.8503158414  W2        4086            0.0000000000
     12257      4086  TIP3      H1             19.4045212922      -35.4842363765        2.4934058414  W2        4086            0.0000000000
     12258      4086  TIP3      H2             19.6266012922      -34.6162263765        1.2731158414  W2        4086            0.0000000000
     12259      4087  TIP3      OH2            22.2614012922      -22.0628563765        5.9948958414  W2        4087            0.0000000000
     12260      4087  TIP3      H1             21.4406512922      -21.8882063765        5.5343658414  W2        4087            0.0000000000
     12261      4087  TIP3      H2             22.0091812922      -22.1363863765        6.9153358414  W2        4087            0.0000000000
     12262      4088  TIP3      OH2            25.2156912922      -21.0887363765        2.2532958414  W2        4088            0.0000000000
     12263      4088  TIP3      H1             24.7908012922      -20.2788863765        1.9707558414  W2        4088            0.0000000000
     12264      4088  TIP3      H2             26.1199712922      -21.0033263765        1.9512758414  W2        4088            0.0000000000
     12265      4089  TIP3      OH2            29.5268312922      -19.6897363765        5.2126658414  W2        4089            0.0000000000
     12266      4089  TIP3      H1             29.7115812922      -20.0231263765        6.0906958414  W2        4089            0.0000000000
     12267      4089  TIP3      H2             30.3732812922      -19.3798763765        4.8905858414  W2        4089            0.0000000000
     12268      4090  TIP3      OH2            31.8718712922      -18.4038463765        4.4568058414  W2        4090            0.0000000000
     12269      4090  TIP3      H1             32.5487612922      -19.0366163765        4.2167258414  W2        4090            0.0000000000
     12270      4090  TIP3      H2             32.1937512922      -18.0027963765        5.2641358414  W2        4090            0.0000000000
     12271      4091  TIP3      OH2            22.6173612922      -17.8323463765        2.3008258414  W2        4091            0.0000000000
     12272      4091  TIP3      H1             21.8970012922      -17.3922463765        1.8495958414  W2        4091            0.0000000000
     12273      4091  TIP3      H2             22.2517612922      -18.0828763765        3.1492258414  W2        4091            0.0000000000
     12274      4092  TIP3      OH2            25.0846212922      -18.2319563765        1.3305458414  W2        4092            0.0000000000
     12275      4092  TIP3      H1             24.2198412922      -18.1601063765        1.7345558414  W2        4092            0.0000000000
     12276      4092  TIP3      H2             25.0295212922      -17.6852263765        0.5467958414  W2        4092            0.0000000000
     12277      4093  TIP3      OH2            29.7951812922      -18.3440663765        0.5061458414  W2        4093            0.0000000000
     12278      4093  TIP3      H1             29.3385812922      -17.8150963765       -0.1480141586  W2        4093            0.0000000000
     12279      4093  TIP3      H2             29.9579812922      -17.7409263765        1.2313758414  W2        4093            0.0000000000
     12280      4094  TIP3      OH2            32.1228112922      -19.4661063765        1.4511758414  W2        4094            0.0000000000
     12281      4094  TIP3      H1             31.2181812922      -19.3010863765        1.1853858414  W2        4094            0.0000000000
     12282      4094  TIP3      H2             32.5516712922      -18.6128863765        1.3855158414  W2        4094            0.0000000000
     12283      4095  TIP3      OH2            34.7270012922      -17.8961963765        1.7459558414  W2        4095            0.0000000000
     12284      4095  TIP3      H1             34.5452012922      -16.9803063765        1.5354458414  W2        4095            0.0000000000
     12285      4095  TIP3      H2             34.9037812922      -18.3064863765        0.8994158414  W2        4095            0.0000000000
     12286      4096  TIP3      OH2            22.0321712922      -19.2090963765       -0.7889941586  W2        4096            0.0000000000
     12287      4096  TIP3      H1             22.0137712922      -19.6345863765        0.0682358414  W2        4096            0.0000000000
     12288      4096  TIP3      H2             22.8369612922      -19.5275963765       -1.1977741586  W2        4096            0.0000000000
     12289      4097  TIP3      OH2            24.1734812922      -20.4992263765       -2.1340041586  W2        4097            0.0000000000
     12290      4097  TIP3      H1             23.9545512922      -21.4154863765       -1.9644041586  W2        4097            0.0000000000
     12291      4097  TIP3      H2             24.9977012922      -20.3591863765       -1.6678641586  W2        4097            0.0000000000
     12292      4098  TIP3      OH2            26.7107312922      -20.0292963765       -1.2852041586  W2        4098            0.0000000000
     12293      4098  TIP3      H1             26.9233012922      -20.9173963765       -1.5721141586  W2        4098            0.0000000000
     12294      4098  TIP3      H2             26.7752412922      -20.0635263765       -0.3308041586  W2        4098            0.0000000000
     12295      4099  TIP3      OH2            30.2191012922      -34.3652363765       -2.1408741586  W2        4099            0.0000000000
     12296      4099  TIP3      H1             29.5447812922      -34.9946763765       -1.8852941586  W2        4099            0.0000000000
     12297      4099  TIP3      H2             30.7830212922      -34.8493463765       -2.7440841586  W2        4099            0.0000000000
     12298      4100  TIP3      OH2            35.3618212922      -36.2578363765       -2.0281641586  W2        4100            0.0000000000
     12299      4100  TIP3      H1             35.9655812922      -35.7102963765       -2.5300641586  W2        4100            0.0000000000
     12300      4100  TIP3      H2             34.4920212922      -35.9387963765       -2.2687541586  W2        4100            0.0000000000
     12301      4101  TIP3      OH2            22.5458512922      -35.7312063765       -4.3188841586  W2        4101            0.0000000000
     12302      4101  TIP3      H1             21.7688312922      -35.9657163765       -4.8262941586  W2        4101            0.0000000000
     12303      4101  TIP3      H2             23.0762112922      -36.5279963765       -4.3100841586  W2        4101            0.0000000000
     12304      4102  TIP3      OH2            21.3821912922      -35.9333963765       -8.5152741586  W2        4102            0.0000000000
     12305      4102  TIP3      H1             21.8212612922      -35.3223463765       -9.1069241586  W2        4102            0.0000000000
     12306      4102  TIP3      H2             20.7484312922      -35.3949863765       -8.0412741586  W2        4102            0.0000000000
     12307      4103  TIP3      OH2            27.1251112922      -35.8044963765       -4.5055741586  W2        4103            0.0000000000
     12308      4103  TIP3      H1             27.9994512922      -35.4160663765       -4.5351441586  W2        4103            0.0000000000
     12309      4103  TIP3      H2             26.9891912922      -36.0197163765       -3.5828541586  W2        4103            0.0000000000
     12310      4104  TIP3      OH2            32.6819512922      -35.7745163765       -2.8564041586  W2        4104            0.0000000000
     12311      4104  TIP3      H1             32.7581112922      -35.6793563765       -3.8058041586  W2        4104            0.0000000000
     12312      4104  TIP3      H2             32.4068712922      -36.6822263765       -2.7274941586  W2        4104            0.0000000000
     12313      4105  TIP3      OH2            34.0352112922      -35.7487363765       -7.1639041586  W2        4105            0.0000000000
     12314      4105  TIP3      H1             33.3323212922      -35.1338163765       -7.3737641586  W2        4105            0.0000000000
     12315      4105  TIP3      H2             33.5903512922      -36.5860663765       -7.0328141586  W2        4105            0.0000000000
     12316      4106  TIP3      OH2            21.2831412922      -19.9851763765       -7.6177641586  W2        4106            0.0000000000
     12317      4106  TIP3      H1             20.5981312922      -20.0232863765       -8.2852541586  W2        4106            0.0000000000
     12318      4106  TIP3      H2             21.2868612922      -19.0724163765       -7.3295541586  W2        4106            0.0000000000
     12319      4107  TIP3      OH2            23.2431012922      -34.0172463765      -10.0728641586  W2        4107            0.0000000000
     12320      4107  TIP3      H1             23.7344412922      -34.6470063765      -10.6003141586  W2        4107            0.0000000000
     12321      4107  TIP3      H2             23.8667312922      -33.7213063765       -9.4097441586  W2        4107            0.0000000000
     12322      4108  TIP3      OH2            28.2691112922      -33.7240963765       -7.6158141586  W2        4108            0.0000000000
     12323      4108  TIP3      H1             28.4472412922      -34.3707763765       -6.9329541586  W2        4108            0.0000000000
     12324      4108  TIP3      H2             28.2157312922      -32.8903263765       -7.1487041586  W2        4108            0.0000000000
     12325      4109  TIP3      OH2            30.1474912922      -18.7756863765       -9.2201441586  W2        4109            0.0000000000
     12326      4109  TIP3      H1             31.0135112922      -18.4089463765       -9.3983241586  W2        4109            0.0000000000
     12327      4109  TIP3      H2             29.9007712922      -19.2148863765      -10.0340641586  W2        4109            0.0000000000
     12328      4110  TIP3      OH2            22.5036512922      -35.2170163765        5.1987358414  W2        4110            0.0000000000
     12329      4110  TIP3      H1             22.1374712922      -35.9827563765        5.6412058414  W2        4110            0.0000000000
     12330      4110  TIP3      H2             23.4165012922      -35.1879963765        5.4852458414  W2        4110            0.0000000000
     12331      4111  TIP3      OH2            24.4767312922      -35.8665763765        6.7344458414  W2        4111            0.0000000000
     12332      4111  TIP3      H1             25.3750912922      -36.1405563765        6.5497858414  W2        4111            0.0000000000
     12333      4111  TIP3      H2             24.0900412922      -36.6089763765        7.1987058414  W2        4111            0.0000000000
     12334      4112  TIP3      OH2            23.1012612922      -19.0650963765      -10.5925541586  W2        4112            0.0000000000
     12335      4112  TIP3      H1             22.8337212922      -18.7788063765       -9.7192441586  W2        4112            0.0000000000
     12336      4112  TIP3      H2             23.8725212922      -19.6111763765      -10.4403041586  W2        4112            0.0000000000
     12337      4113  TIP3      OH2            32.8979612922      -36.5340463765        6.9167258414  W2        4113            0.0000000000
     12338      4113  TIP3      H1             32.9746812922      -36.9599763765        7.7704958414  W2        4113            0.0000000000
     12339      4113  TIP3      H2             33.7916212922      -36.5205763765        6.5740758414  W2        4113            0.0000000000
     12340      4114  TIP3      OH2            36.0740712922      -20.4614163765        5.6091458414  W2        4114            0.0000000000
     12341      4114  TIP3      H1             35.2922612922      -20.6476163765        5.0892058414  W2        4114            0.0000000000
     12342      4114  TIP3      H2             36.0020612922      -19.5319863765        5.8263958414  W2        4114            0.0000000000
     12343      4115  TIP3      OH2           -24.9438887078       -7.7189763765       -4.3601341586  W2        4115            0.0000000000
     12344      4115  TIP3      H1            -24.8547787078       -6.7751563765       -4.4924241586  W2        4115            0.0000000000
     12345      4115  TIP3      H2            -25.5821287078       -7.9943363765       -5.0181941586  W2        4115            0.0000000000
     12346      4116  TIP3      OH2           -26.0107587078       -8.4639063765       -0.9413141586  W2        4116            0.0000000000
     12347      4116  TIP3      H1            -26.0490087078       -9.1102763765       -0.2363541586  W2        4116            0.0000000000
     12348      4116  TIP3      H2            -26.3331087078       -8.9304663765       -1.7124441586  W2        4116            0.0000000000
     12349      4117  TIP3      OH2           -33.6422587078       -8.8496963765        0.6516758414  W2        4117            0.0000000000
     12350      4117  TIP3      H1            -33.6010487078       -9.4753663765        1.3749158414  W2        4117            0.0000000000
     12351      4117  TIP3      H2            -32.9394887078       -8.2258363765        0.8337158414  W2        4117            0.0000000000
     12352      4118  TIP3      OH2           -22.3047387078       -5.5248663765       -2.6398041586  W2        4118            0.0000000000
     12353      4118  TIP3      H1            -22.7454687078       -6.2452663765       -2.1892441586  W2        4118            0.0000000000
     12354      4118  TIP3      H2            -22.3177687078       -4.8041463765       -2.0100341586  W2        4118            0.0000000000
     12355      4119  TIP3      OH2           -32.7189487078       -4.3998063765       -0.8134141586  W2        4119            0.0000000000
     12356      4119  TIP3      H1            -33.0884287078       -5.2017563765       -1.1829841586  W2        4119            0.0000000000
     12357      4119  TIP3      H2            -31.7778387078       -4.5683163765       -0.7670741586  W2        4119            0.0000000000
     12358      4120  TIP3      OH2           -36.1088987078      -10.7395463765       -5.4205341586  W2        4120            0.0000000000
     12359      4120  TIP3      H1            -36.5565587078       -9.8936763765       -5.4388841586  W2        4120            0.0000000000
     12360      4120  TIP3      H2            -36.6697787078      -11.3191263765       -5.9360241586  W2        4120            0.0000000000
     12361      4121  TIP3      OH2           -35.3982887078       -8.5775863765       -3.2947341586  W2        4121            0.0000000000
     12362      4121  TIP3      H1            -35.1849387078       -9.3474263765       -2.7674341586  W2        4121            0.0000000000
     12363      4121  TIP3      H2            -34.6605287078       -8.4879163765       -3.8979741586  W2        4121            0.0000000000
     12364      4122  TIP3      OH2           -25.1931887078       -0.4206963765       -2.4277641586  W2        4122            0.0000000000
     12365      4122  TIP3      H1            -24.5735487078       -1.0972263765       -2.7008441586  W2        4122            0.0000000000
     12366      4122  TIP3      H2            -25.4014487078       -0.6386163765       -1.5192741586  W2        4122            0.0000000000
     12367      4123  TIP3      OH2           -27.6213187078       -6.0317663765       -0.5352141586  W2        4123            0.0000000000
     12368      4123  TIP3      H1            -27.3175287078       -6.7176263765       -1.1298041586  W2        4123            0.0000000000
     12369      4123  TIP3      H2            -26.8999187078       -5.9128963765        0.0825858414  W2        4123            0.0000000000
     12370      4124  TIP3      OH2           -18.9583387078      -14.4302363765        0.3254058414  W2        4124            0.0000000000
     12371      4124  TIP3      H1            -18.9091187078      -13.8201163765        1.0613158414  W2        4124            0.0000000000
     12372      4124  TIP3      H2            -18.5328287078      -13.9691463765       -0.3974841586  W2        4124            0.0000000000
     12373      4125  TIP3      OH2           -24.4806187078      -11.6375263765       -0.2077341586  W2        4125            0.0000000000
     12374      4125  TIP3      H1            -24.3380287078      -12.5838263765       -0.1875741586  W2        4125            0.0000000000
     12375      4125  TIP3      H2            -24.5867187078      -11.4305463765       -1.1362441586  W2        4125            0.0000000000
     12376      4126  TIP3      OH2           -31.3257887078      -13.5358863765       -2.9352541586  W2        4126            0.0000000000
     12377      4126  TIP3      H1            -31.2826787078      -12.6760363765       -3.3536241586  W2        4126            0.0000000000
     12378      4126  TIP3      H2            -31.7833787078      -14.0884163765       -3.5689341586  W2        4126            0.0000000000
     12379      4127  TIP3      OH2           -23.6035187078      -13.4053263765       -4.5344241586  W2        4127            0.0000000000
     12380      4127  TIP3      H1            -22.9570887078      -13.7340063765       -3.9096641586  W2        4127            0.0000000000
     12381      4127  TIP3      H2            -23.0935787078      -12.8874263765       -5.1572841586  W2        4127            0.0000000000
     12382      4128  TIP3      OH2           -34.7056387078      -11.1393063765       -2.1731141586  W2        4128            0.0000000000
     12383      4128  TIP3      H1            -34.0519787078      -11.6891363765       -1.7411041586  W2        4128            0.0000000000
     12384      4128  TIP3      H2            -34.6817087078      -11.4134063765       -3.0899141586  W2        4128            0.0000000000
     12385      4129  TIP3      OH2           -29.5491887078       -9.5891763765       -2.9579641586  W2        4129            0.0000000000
     12386      4129  TIP3      H1            -28.9330887078      -10.1156363765       -2.4485641586  W2        4129            0.0000000000
     12387      4129  TIP3      H2            -30.1353087078      -10.2293063765       -3.3616041586  W2        4129            0.0000000000
     12388      4130  TIP3      OH2           -18.5668787078      -12.9523163765        2.5613858414  W2        4130            0.0000000000
     12389      4130  TIP3      H1            -19.2554187078      -12.2942463765        2.4660458414  W2        4130            0.0000000000
     12390      4130  TIP3      H2            -18.5514187078      -13.1495263765        3.4979258414  W2        4130            0.0000000000
     12391      4131  TIP3      OH2           -32.5155987078      -14.6180463765        1.1388258414  W2        4131            0.0000000000
     12392      4131  TIP3      H1            -32.7344287078      -14.0879863765        0.3724258414  W2        4131            0.0000000000
     12393      4131  TIP3      H2            -33.1835087078      -14.3914963765        1.7859658414  W2        4131            0.0000000000
     12394      4132  TIP3      OH2           -25.1466187078       -5.1179363765       -5.3172641586  W2        4132            0.0000000000
     12395      4132  TIP3      H1            -25.4421087078       -5.4407063765       -6.1685741586  W2        4132            0.0000000000
     12396      4132  TIP3      H2            -25.4708387078       -4.2182663765       -5.2760041586  W2        4132            0.0000000000
     12397      4133  TIP3      OH2           -29.9464587078       -6.9424763765        1.4261958414  W2        4133            0.0000000000
     12398      4133  TIP3      H1            -30.6865487078       -6.3443263765        1.5297158414  W2        4133            0.0000000000
     12399      4133  TIP3      H2            -29.2325087078       -6.3885163765        1.1105558414  W2        4133            0.0000000000
     12400      4134  TIP3      OH2           -21.8396787078      -14.1143963765       -2.5538341586  W2        4134            0.0000000000
     12401      4134  TIP3      H1            -22.0548787078      -14.8800563765       -2.0212341586  W2        4134            0.0000000000
     12402      4134  TIP3      H2            -21.1839387078      -13.6419363765       -2.0409841586  W2        4134            0.0000000000
     12403      4135  TIP3      OH2           -32.9218687078      -12.7258663765       -0.9089541586  W2        4135            0.0000000000
     12404      4135  TIP3      H1            -32.3082387078      -12.0931063765       -0.5357141586  W2        4135            0.0000000000
     12405      4135  TIP3      H2            -32.4097987078      -13.1983663765       -1.5652641586  W2        4135            0.0000000000
     12406      4136  TIP3      OH2           -31.5390287078       -4.9781763765        2.2133458414  W2        4136            0.0000000000
     12407      4136  TIP3      H1            -31.5442687078       -4.0988263765        1.8352758414  W2        4136            0.0000000000
     12408      4136  TIP3      H2            -32.3926187078       -5.0617663765        2.6383358414  W2        4136            0.0000000000
     12409      4137  TIP3      OH2           -35.4179387078       -5.3073863765       -7.0047241586  W2        4137            0.0000000000
     12410      4137  TIP3      H1            -35.6898487078       -5.0782863765       -7.8934341586  W2        4137            0.0000000000
     12411      4137  TIP3      H2            -35.3723687078       -4.4695063765       -6.5441941586  W2        4137            0.0000000000
     12412      4138  TIP3      OH2           -21.7929687078       -3.6857963765       -0.2918741586  W2        4138            0.0000000000
     12413      4138  TIP3      H1            -22.7345987078       -3.6274063765       -0.1301841586  W2        4138            0.0000000000
     12414      4138  TIP3      H2            -21.5163587078       -2.7797463765       -0.4289041586  W2        4138            0.0000000000
     12415      4139  TIP3      OH2           -21.4922687078      -15.3992663765        1.1255158414  W2        4139            0.0000000000
     12416      4139  TIP3      H1            -22.2283487078      -14.7885563765        1.0876458414  W2        4139            0.0000000000
     12417      4139  TIP3      H2            -20.8088687078      -14.9843663765        0.5991558414  W2        4139            0.0000000000
     12418      4140  TIP3      OH2           -28.4891287078      -17.3125363765       -1.4086841586  W2        4140            0.0000000000
     12419      4140  TIP3      H1            -28.6067087078      -18.2609363765       -1.4628541586  W2        4140            0.0000000000
     12420      4140  TIP3      H2            -29.3441187078      -16.9799263765       -1.1355741586  W2        4140            0.0000000000
     12421      4141  TIP3      OH2           -23.5408487078       -1.9044463765       -3.6667141586  W2        4141            0.0000000000
     12422      4141  TIP3      H1            -23.1156187078       -2.6116563765       -4.1517541586  W2        4141            0.0000000000
     12423      4141  TIP3      H2            -23.2238487078       -1.1031763765       -4.0834941586  W2        4141            0.0000000000
     12424      4142  TIP3      OH2           -22.3811987078       -4.0035963765       -5.1580541586  W2        4142            0.0000000000
     12425      4142  TIP3      H1            -22.6387187078       -4.6935863765       -5.7694641586  W2        4142            0.0000000000
     12426      4142  TIP3      H2            -22.3101187078       -4.4464763765       -4.3124641586  W2        4142            0.0000000000
     12427      4143  TIP3      OH2           -20.6951787078       -5.4369263765        3.3192958414  W2        4143            0.0000000000
     12428      4143  TIP3      H1            -20.5555487078       -6.0286763765        2.5799958414  W2        4143            0.0000000000
     12429      4143  TIP3      H2            -20.5278987078       -4.5643363765        2.9631758414  W2        4143            0.0000000000
     12430      4144  TIP3      OH2           -26.2226387078       -8.4749763765       -6.9081041586  W2        4144            0.0000000000
     12431      4144  TIP3      H1            -26.9340887078       -7.9400063765       -7.2600541586  W2        4144            0.0000000000
     12432      4144  TIP3      H2            -25.5316787078       -8.4197663765       -7.5682141586  W2        4144            0.0000000000
     12433      4145  TIP3      OH2           -26.1687187078      -10.0175463765       -9.8696041586  W2        4145            0.0000000000
     12434      4145  TIP3      H1            -25.4677287078       -9.9948563765       -9.2182041586  W2        4145            0.0000000000
     12435      4145  TIP3      H2            -25.8664287078      -10.6455763765      -10.5256741586  W2        4145            0.0000000000
     12436      4146  TIP3      OH2           -18.8532487078       -9.0971263765        1.3853358414  W2        4146            0.0000000000
     12437      4146  TIP3      H1            -19.5058387078       -8.4025663765        1.4744258414  W2        4146            0.0000000000
     12438      4146  TIP3      H2            -18.3882187078       -8.8870363765        0.5754958414  W2        4146            0.0000000000
     12439      4147  TIP3      OH2           -22.8168687078       -8.2656463765       -5.9565141586  W2        4147            0.0000000000
     12440      4147  TIP3      H1            -23.5487687078       -8.0372763765       -5.3834541586  W2        4147            0.0000000000
     12441      4147  TIP3      H2            -22.3696487078       -8.9793763765       -5.5017641586  W2        4147            0.0000000000
     12442      4148  TIP3      OH2           -22.9195187078      -10.0913863765        3.1111858414  W2        4148            0.0000000000
     12443      4148  TIP3      H1            -22.8396087078       -9.3279463765        3.6830358414  W2        4148            0.0000000000
     12444      4148  TIP3      H2            -23.5207487078       -9.8121463765        2.4206958414  W2        4148            0.0000000000
     12445      4149  TIP3      OH2           -31.1714987078       -7.6350263765       -4.0740141586  W2        4149            0.0000000000
     12446      4149  TIP3      H1            -31.5019787078       -8.0056863765       -4.8923141586  W2        4149            0.0000000000
     12447      4149  TIP3      H2            -30.5830887078       -8.3056263765       -3.7271841586  W2        4149            0.0000000000
     12448      4150  TIP3      OH2           -29.8047487078       -4.2069663765       -1.3927941586  W2        4150            0.0000000000
     12449      4150  TIP3      H1            -29.8996187078       -4.7856563765       -2.1493341586  W2        4150            0.0000000000
     12450      4150  TIP3      H2            -29.0753887078       -4.5783963765       -0.8965141586  W2        4150            0.0000000000
     12451      4151  TIP3      OH2           -30.8049487078       -8.8664663765       -0.4405141586  W2        4151            0.0000000000
     12452      4151  TIP3      H1            -30.2396987078       -8.7450463765       -1.2033941586  W2        4151            0.0000000000
     12453      4151  TIP3      H2            -30.4860587078       -8.2289663765        0.1983358414  W2        4151            0.0000000000
     12454      4152  TIP3      OH2           -24.4957287078       -3.3632763765        0.2935358414  W2        4152            0.0000000000
     12455      4152  TIP3      H1            -24.7360687078       -2.7009663765        0.9414558414  W2        4152            0.0000000000
     12456      4152  TIP3      H2            -24.6939087078       -4.1977563765        0.7184958414  W2        4152            0.0000000000
     12457      4153  TIP3      OH2           -29.9248787078       -4.4671963765        4.2766758414  W2        4153            0.0000000000
     12458      4153  TIP3      H1            -30.2361287078       -3.6848763765        4.7319958414  W2        4153            0.0000000000
     12459      4153  TIP3      H2            -30.5748587078       -4.6202863765        3.5908758414  W2        4153            0.0000000000
     12460      4154  TIP3      OH2           -23.9459187078       -9.1033563765       -8.2713941586  W2        4154            0.0000000000
     12461      4154  TIP3      H1            -23.3663687078       -8.9533263765       -7.5245041586  W2        4154            0.0000000000
     12462      4154  TIP3      H2            -23.5319187078       -8.6326163765       -8.9947541586  W2        4154            0.0000000000
     12463      4155  TIP3      OH2           -33.0048887078       -8.2690863765        3.5052458414  W2        4155            0.0000000000
     12464      4155  TIP3      H1            -32.9345687078       -7.6184063765        4.2037458414  W2        4155            0.0000000000
     12465      4155  TIP3      H2            -33.8956687078       -8.1663363765        3.1703358414  W2        4155            0.0000000000
     12466      4156  TIP3      OH2           -26.2194287078       -2.3665063765       -4.8360841586  W2        4156            0.0000000000
     12467      4156  TIP3      H1            -25.7456687078       -2.0708763765       -4.0586641586  W2        4156            0.0000000000
     12468      4156  TIP3      H2            -26.7824987078       -1.6283463765       -5.0691241586  W2        4156            0.0000000000
     12469      4157  TIP3      OH2           -31.6852887078       -2.3956963765        5.0400558414  W2        4157            0.0000000000
     12470      4157  TIP3      H1            -31.6777587078       -2.5317263765        4.0926058414  W2        4157            0.0000000000
     12471      4157  TIP3      H2            -32.6012487078       -2.5128863765        5.2920558414  W2        4157            0.0000000000
     12472      4158  TIP3      OH2           -20.2470787078      -17.3533163765       -8.4584241586  W2        4158            0.0000000000
     12473      4158  TIP3      H1            -21.1470087078      -17.2144163765       -8.1633641586  W2        4158            0.0000000000
     12474      4158  TIP3      H2            -19.9952387078      -16.5218563765       -8.8602541586  W2        4158            0.0000000000
     12475      4159  TIP3      OH2           -32.1812287078       -8.5655963765       -6.4847341586  W2        4159            0.0000000000
     12476      4159  TIP3      H1            -32.4730987078       -7.7974263765       -6.9756041586  W2        4159            0.0000000000
     12477      4159  TIP3      H2            -32.8557087078       -9.2249763765       -6.6475941586  W2        4159            0.0000000000
     12478      4160  TIP3      OH2           -19.0579387078       -2.9870763765      -10.0820341586  W2        4160            0.0000000000
     12479      4160  TIP3      H1            -18.9845887078       -2.0480563765       -9.9115041586  W2        4160            0.0000000000
     12480      4160  TIP3      H2            -18.1524287078       -3.2922163765      -10.1383041586  W2        4160            0.0000000000
     12481      4161  TIP3      OH2           -36.0882187078       -6.2026763765        2.3302458414  W2        4161            0.0000000000
     12482      4161  TIP3      H1            -36.5893787078       -6.2307363765        1.5152158414  W2        4161            0.0000000000
     12483      4161  TIP3      H2            -36.0828487078       -7.1083563765        2.6399758414  W2        4161            0.0000000000
     12484      4162  TIP3      OH2           -36.3379487078       -3.4222963765       -0.7857341586  W2        4162            0.0000000000
     12485      4162  TIP3      H1            -35.3918887078       -3.5665963765       -0.8047841586  W2        4162            0.0000000000
     12486      4162  TIP3      H2            -36.4503187078       -2.6380163765       -0.2486141586  W2        4162            0.0000000000
     12487      4163  TIP3      OH2           -18.1400987078       -2.7563263765        4.8966358414  W2        4163            0.0000000000
     12488      4163  TIP3      H1            -18.1894187078       -3.7115163765        4.8593958414  W2        4163            0.0000000000
     12489      4163  TIP3      H2            -18.9668687078       -2.4887963765        5.2980158414  W2        4163            0.0000000000
     12490      4164  TIP3      OH2           -27.1616987078       -3.1824063765        3.7727758414  W2        4164            0.0000000000
     12491      4164  TIP3      H1            -27.0742387078       -2.3559463765        4.2476858414  W2        4164            0.0000000000
     12492      4164  TIP3      H2            -28.0251887078       -3.5120263765        4.0217058414  W2        4164            0.0000000000
     12493      4165  TIP3      OH2           -26.7471187078        0.5899636235       -6.4211641586  W2        4165            0.0000000000
     12494      4165  TIP3      H1            -26.8225187078        0.4686836235       -7.3676441586  W2        4165            0.0000000000
     12495      4165  TIP3      H2            -26.7142487078        1.5392336235       -6.3027041586  W2        4165            0.0000000000
     12496      4166  TIP3      OH2           -33.0937387078       -0.6213363765       -4.6402641586  W2        4166            0.0000000000
     12497      4166  TIP3      H1            -32.9416987078       -0.9692963765       -3.7616141586  W2        4166            0.0000000000
     12498      4166  TIP3      H2            -33.9446987078       -0.9776063765       -4.8955441586  W2        4166            0.0000000000
     12499      4167  TIP3      OH2           -23.6455187078       -0.2560163765       -9.4189241586  W2        4167            0.0000000000
     12500      4167  TIP3      H1            -23.2706787078       -1.0004063765       -9.8896641586  W2        4167            0.0000000000
     12501      4167  TIP3      H2            -23.6411487078       -0.5259563765       -8.5005941586  W2        4167            0.0000000000
     12502      4168  TIP3      OH2           -23.9767087078       -0.3303063765       -6.6697041586  W2        4168            0.0000000000
     12503      4168  TIP3      H1            -24.9117287078       -0.2301163765       -6.4910041586  W2        4168            0.0000000000
     12504      4168  TIP3      H2            -23.6965187078       -1.0397063765       -6.0913841586  W2        4168            0.0000000000
     12505      4169  TIP3      OH2           -20.9881187078      -11.2630763765        5.3768558414  W2        4169            0.0000000000
     12506      4169  TIP3      H1            -21.3954387078      -10.7825163765        4.6561858414  W2        4169            0.0000000000
     12507      4169  TIP3      H2            -20.9475487078      -12.1684763765        5.0689358414  W2        4169            0.0000000000
     12508      4170  TIP3      OH2           -33.8391687078       -4.8791363765        3.3735258414  W2        4170            0.0000000000
     12509      4170  TIP3      H1            -33.6230387078       -5.2405763765        4.2331058414  W2        4170            0.0000000000
     12510      4170  TIP3      H2            -34.6946987078       -5.2537563765        3.1638758414  W2        4170            0.0000000000
     12511      4171  TIP3      OH2           -31.2203687078      -16.4090863765       -0.6310541586  W2        4171            0.0000000000
     12512      4171  TIP3      H1            -32.0819987078      -16.4962663765       -1.0387641586  W2        4171            0.0000000000
     12513      4171  TIP3      H2            -31.2427987078      -15.5530763765       -0.2032941586  W2        4171            0.0000000000
     12514      4172  TIP3      OH2           -26.5575887078      -16.6870463765        2.7436458414  W2        4172            0.0000000000
     12515      4172  TIP3      H1            -26.1372787078      -17.1023363765        3.4967058414  W2        4172            0.0000000000
     12516      4172  TIP3      H2            -27.4906287078      -16.8657163765        2.8608458414  W2        4172            0.0000000000
     12517      4173  TIP3      OH2           -23.2310987078      -12.9315263765        3.5970958414  W2        4173            0.0000000000
     12518      4173  TIP3      H1            -23.7451487078      -13.0573063765        4.3946958414  W2        4173            0.0000000000
     12519      4173  TIP3      H2            -23.3866287078      -12.0192163765        3.3527158414  W2        4173            0.0000000000
     12520      4174  TIP3      OH2           -22.4686087078       -8.0705263765      -10.6416041586  W2        4174            0.0000000000
     12521      4174  TIP3      H1            -22.4265287078       -8.2931363765      -11.5716041586  W2        4174            0.0000000000
     12522      4174  TIP3      H2            -21.6193987078       -7.6718163765      -10.4516141586  W2        4174            0.0000000000
     12523      4175  TIP3      OH2           -26.8958587078      -14.1947063765       -9.9712741586  W2        4175            0.0000000000
     12524      4175  TIP3      H1            -27.1493787078      -14.1755463765       -9.0484641586  W2        4175            0.0000000000
     12525      4175  TIP3      H2            -27.1526487078      -15.0661663765      -10.2726541586  W2        4175            0.0000000000
     12526      4176  TIP3      OH2           -31.1293587078      -11.4436363765        0.4639658414  W2        4176            0.0000000000
     12527      4176  TIP3      H1            -31.7711487078      -11.4839063765        1.1729758414  W2        4176            0.0000000000
     12528      4176  TIP3      H2            -31.0921587078      -10.5171663765        0.2262658414  W2        4176            0.0000000000
     12529      4177  TIP3      OH2           -31.1324487078      -11.2226263765       -4.6240341586  W2        4177            0.0000000000
     12530      4177  TIP3      H1            -32.0251587078      -11.5630163765       -4.6826541586  W2        4177            0.0000000000
     12531      4177  TIP3      H2            -30.6817887078      -11.5995363765       -5.3797141586  W2        4177            0.0000000000
     12532      4178  TIP3      OH2           -25.5968987078      -10.8065963765       -5.8069541586  W2        4178            0.0000000000
     12533      4178  TIP3      H1            -26.0058687078       -9.9917363765       -6.0984741586  W2        4178            0.0000000000
     12534      4178  TIP3      H2            -24.8762787078      -10.9465863765       -6.4212441586  W2        4178            0.0000000000
     12535      4179  TIP3      OH2           -26.4947387078      -10.6309563765        5.6811158414  W2        4179            0.0000000000
     12536      4179  TIP3      H1            -27.0573587078      -11.3357963765        6.0018958414  W2        4179            0.0000000000
     12537      4179  TIP3      H2            -25.6683987078      -10.7517663765        6.1488758414  W2        4179            0.0000000000
     12538      4180  TIP3      OH2           -24.5921287078      -11.3605563765       -2.9929841586  W2        4180            0.0000000000
     12539      4180  TIP3      H1            -24.7876787078      -10.7548763765       -3.7079241586  W2        4180            0.0000000000
     12540      4180  TIP3      H2            -24.4108687078      -12.1940363765       -3.4273541586  W2        4180            0.0000000000
     12541      4181  TIP3      OH2           -33.3793087078      -11.1232863765        2.3311658414  W2        4181            0.0000000000
     12542      4181  TIP3      H1            -33.4173687078      -10.7231263765        3.1998758414  W2        4181            0.0000000000
     12543      4181  TIP3      H2            -33.8701987078      -11.9400463765        2.4214558414  W2        4181            0.0000000000
     12544      4182  TIP3      OH2           -30.0135687078      -13.7490563765      -10.8702341586  W2        4182            0.0000000000
     12545      4182  TIP3      H1            -30.4444987078      -14.1940463765      -10.1404941586  W2        4182            0.0000000000
     12546      4182  TIP3      H2            -30.7316987078      -13.3774263765      -11.3824841586  W2        4182            0.0000000000
     12547      4183  TIP3      OH2           -36.7712287078      -14.0071063765       -3.8183641586  W2        4183            0.0000000000
     12548      4183  TIP3      H1            -36.1404587078      -14.0358963765       -3.0989741586  W2        4183            0.0000000000
     12549      4183  TIP3      H2            -36.3217987078      -14.4322363765       -4.5487741586  W2        4183            0.0000000000
     12550      4184  TIP3      OH2           -35.4970187078      -13.2609063765       -8.3943241586  W2        4184            0.0000000000
     12551      4184  TIP3      H1            -35.0228487078      -12.6699163765       -8.9792341586  W2        4184            0.0000000000
     12552      4184  TIP3      H2            -36.2143787078      -12.7306163765       -8.0473141586  W2        4184            0.0000000000
     12553      4185  TIP3      OH2           -25.3282087078       -9.7224263765        1.6782558414  W2        4185            0.0000000000
     12554      4185  TIP3      H1            -25.0047287078      -10.3534563765        1.0353058414  W2        4185            0.0000000000
     12555      4185  TIP3      H2            -25.7682787078      -10.2572063765        2.3389958414  W2        4185            0.0000000000
     12556      4186  TIP3      OH2           -28.5509187078      -13.7948763765       -3.5376241586  W2        4186            0.0000000000
     12557      4186  TIP3      H1            -29.4618087078      -13.7381963765       -3.2490241586  W2        4186            0.0000000000
     12558      4186  TIP3      H2            -28.0456287078      -13.8553263765       -2.7269041586  W2        4186            0.0000000000
     12559      4187  TIP3      OH2           -33.7225787078      -12.1662463765       -4.7108641586  W2        4187            0.0000000000
     12560      4187  TIP3      H1            -34.6117787078      -12.0666963765       -5.0509041586  W2        4187            0.0000000000
     12561      4187  TIP3      H2            -33.4260887078      -13.0079463765       -5.0570741586  W2        4187            0.0000000000
     12562      4188  TIP3      OH2           -30.0693987078      -12.1659863765       -7.0544041586  W2        4188            0.0000000000
     12563      4188  TIP3      H1            -29.1378487078      -12.0369863765       -6.8760941586  W2        4188            0.0000000000
     12564      4188  TIP3      H2            -30.2843687078      -11.4965563765       -7.7039341586  W2        4188            0.0000000000
     12565      4189  TIP3      OH2           -24.1457287078      -14.5602463765       -0.2734441586  W2        4189            0.0000000000
     12566      4189  TIP3      H1            -24.8225687078      -14.4289363765        0.3905258414  W2        4189            0.0000000000
     12567      4189  TIP3      H2            -24.6312387078      -14.7152963765       -1.0836741586  W2        4189            0.0000000000
     12568      4190  TIP3      OH2           -31.3953787078      -10.9717663765       -9.4877941586  W2        4190            0.0000000000
     12569      4190  TIP3      H1            -31.9378687078      -11.3513863765      -10.1790341586  W2        4190            0.0000000000
     12570      4190  TIP3      H2            -30.5618887078      -10.7772963765       -9.9163841586  W2        4190            0.0000000000
     12571      4191  TIP3      OH2           -20.8582187078        1.1112936235        6.0033158414  W2        4191            0.0000000000
     12572      4191  TIP3      H1            -20.6583487078        1.5354836235        5.1688458414  W2        4191            0.0000000000
     12573      4191  TIP3      H2            -20.2028487078        1.4551136235        6.6103558414  W2        4191            0.0000000000
     12574      4192  TIP3      OH2           -33.2602387078       -6.4145763765        5.6113658414  W2        4192            0.0000000000
     12575      4192  TIP3      H1            -32.5279987078       -6.1599863765        6.1728158414  W2        4192            0.0000000000
     12576      4192  TIP3      H2            -34.0403687078       -6.2100363765        6.1269058414  W2        4192            0.0000000000
     12577      4193  TIP3      OH2           -27.2309487078      -11.0075763765       -1.6506641586  W2        4193            0.0000000000
     12578      4193  TIP3      H1            -26.6666087078      -11.5539163765       -2.1977041586  W2        4193            0.0000000000
     12579      4193  TIP3      H2            -27.3786087078      -11.5293863765       -0.8619041586  W2        4193            0.0000000000
     12580      4194  TIP3      OH2           -32.2289787078      -14.8709663765       -5.2321841586  W2        4194            0.0000000000
     12581      4194  TIP3      H1            -32.5460287078      -15.7734363765       -5.2676441586  W2        4194            0.0000000000
     12582      4194  TIP3      H2            -31.4475687078      -14.8692263765       -5.7850241586  W2        4194            0.0000000000
     12583      4195  TIP3      OH2           -28.6043587078      -12.6189663765        0.7633758414  W2        4195            0.0000000000
     12584      4195  TIP3      H1            -29.4398287078      -12.1650163765        0.8736158414  W2        4195            0.0000000000
     12585      4195  TIP3      H2            -28.0802987078      -12.3431163765        1.5153658414  W2        4195            0.0000000000
     12586      4196  TIP3      OH2           -28.0600987078       -6.4061963765       -7.5519841586  W2        4196            0.0000000000
     12587      4196  TIP3      H1            -28.8049987078       -6.9136663765       -7.8741941586  W2        4196            0.0000000000
     12588      4196  TIP3      H2            -28.1943787078       -6.3573963765       -6.6055041586  W2        4196            0.0000000000
     12589      4197  TIP3      OH2           -20.9102087078       -7.2733763765        1.2347758414  W2        4197            0.0000000000
     12590      4197  TIP3      H1            -20.2683287078       -6.8167463765        0.6909958414  W2        4197            0.0000000000
     12591      4197  TIP3      H2            -21.7405187078       -7.1601363765        0.7721858414  W2        4197            0.0000000000
     12592      4198  TIP3      OH2           -24.1624187078      -13.5922063765       -9.3527241586  W2        4198            0.0000000000
     12593      4198  TIP3      H1            -25.1009987078      -13.4806463765       -9.5038441586  W2        4198            0.0000000000
     12594      4198  TIP3      H2            -23.8652087078      -12.7355163765       -9.0461541586  W2        4198            0.0000000000
     12595      4199  TIP3      OH2           -26.5408887078       -6.2218663765        3.6849258414  W2        4199            0.0000000000
     12596      4199  TIP3      H1            -26.8862787078       -6.6036263765        4.4918858414  W2        4199            0.0000000000
     12597      4199  TIP3      H2            -26.7408787078       -5.2885063765        3.7562158414  W2        4199            0.0000000000
     12598      4200  TIP3      OH2           -23.4440687078      -11.7249363765       -7.6919841586  W2        4200            0.0000000000
     12599      4200  TIP3      H1            -22.5521687078      -11.8624363765       -7.3728641586  W2        4200            0.0000000000
     12600      4200  TIP3      H2            -23.3877087078      -10.9343263765       -8.2286341586  W2        4200            0.0000000000
     12601      4201  TIP3      OH2           -32.9352687078       -7.1111963765       -1.7821941586  W2        4201            0.0000000000
     12602      4201  TIP3      H1            -32.1905487078       -7.1136263765       -2.3835441586  W2        4201            0.0000000000
     12603      4201  TIP3      H2            -32.8576087078       -7.9348163765       -1.3006841586  W2        4201            0.0000000000
     12604      4202  TIP3      OH2           -25.9346887078       -4.9477663765       -8.5265241586  W2        4202            0.0000000000
     12605      4202  TIP3      H1            -26.2298487078       -4.1209763765       -8.1450441586  W2        4202            0.0000000000
     12606      4202  TIP3      H2            -26.6376887078       -5.5670763765       -8.3303841586  W2        4202            0.0000000000
     12607      4203  TIP3      OH2           -35.9272987078       -8.6505063765        3.5326558414  W2        4203            0.0000000000
     12608      4203  TIP3      H1            -35.7044387078       -9.0685463765        4.3644058414  W2        4203            0.0000000000
     12609      4203  TIP3      H2            -36.5292887078       -9.2630063765        3.1099358414  W2        4203            0.0000000000
     12610      4204  TIP3      OH2           -28.9108087078       -9.1335163765        5.7456258414  W2        4204            0.0000000000
     12611      4204  TIP3      H1            -29.2067287078       -9.2992163765        4.8505358414  W2        4204            0.0000000000
     12612      4204  TIP3      H2            -27.9792887078       -9.3534863765        5.7350158414  W2        4204            0.0000000000
     12613      4205  TIP3      OH2           -24.2905287078       -3.7603163765        3.6354258414  W2        4205            0.0000000000
     12614      4205  TIP3      H1            -25.1910987078       -3.5770563765        3.3678158414  W2        4205            0.0000000000
     12615      4205  TIP3      H2            -24.2564187078       -3.5013863765        4.5563058414  W2        4205            0.0000000000
     12616      4206  TIP3      OH2           -18.5591987078      -11.5155263765       -7.9973141586  W2        4206            0.0000000000
     12617      4206  TIP3      H1            -19.1135687078      -11.9117263765       -8.6695641586  W2        4206            0.0000000000
     12618      4206  TIP3      H2            -18.4588387078      -10.6050063765       -8.2749841586  W2        4206            0.0000000000
     12619      4207  TIP3      OH2           -18.5959987078       -5.7153563765        4.8398358414  W2        4207            0.0000000000
     12620      4207  TIP3      H1            -19.4471487078       -5.4769763765        4.4724758414  W2        4207            0.0000000000
     12621      4207  TIP3      H2            -18.0056587078       -5.7320363765        4.0865458414  W2        4207            0.0000000000
     12622      4208  TIP3      OH2           -20.2640287078       -2.7294863765       -7.5321041586  W2        4208            0.0000000000
     12623      4208  TIP3      H1            -20.6369187078       -3.5551063765       -7.2230441586  W2        4208            0.0000000000
     12624      4208  TIP3      H2            -19.9866787078       -2.9125463765       -8.4297641586  W2        4208            0.0000000000
     12625      4209  TIP3      OH2           -23.1036387078       -7.9215363765       -0.5109141586  W2        4209            0.0000000000
     12626      4209  TIP3      H1            -24.0319487078       -8.1533463765       -0.5379841586  W2        4209            0.0000000000
     12627      4209  TIP3      H2            -22.6525287078       -8.6985563765       -0.8410341586  W2        4209            0.0000000000
     12628      4210  TIP3      OH2           -30.5603287078       -3.5933763765       -4.3780441586  W2        4210            0.0000000000
     12629      4210  TIP3      H1            -30.0331087078       -2.8199363765       -4.5781641586  W2        4210            0.0000000000
     12630      4210  TIP3      H2            -31.4404787078       -3.3684563765       -4.6796441586  W2        4210            0.0000000000
     12631      4211  TIP3      OH2           -34.8055587078       -8.7309663765       -9.7908041586  W2        4211            0.0000000000
     12632      4211  TIP3      H1            -34.1895687078       -8.1042463765       -9.4113241586  W2        4211            0.0000000000
     12633      4211  TIP3      H2            -35.6672987078       -8.4149863765       -9.5191541586  W2        4211            0.0000000000
     12634      4212  TIP3      OH2           -29.1330987078       -5.9303863765       -4.8016141586  W2        4212            0.0000000000
     12635      4212  TIP3      H1            -29.3740987078       -5.0049463765       -4.7600841586  W2        4212            0.0000000000
     12636      4212  TIP3      H2            -29.8737387078       -6.3892563765       -4.4052241586  W2        4212            0.0000000000
     12637      4213  TIP3      OH2           -28.6184387078       -1.7810263765        1.5134958414  W2        4213            0.0000000000
     12638      4213  TIP3      H1            -28.2559687078       -0.9264663765        1.2799358414  W2        4213            0.0000000000
     12639      4213  TIP3      H2            -28.0869187078       -2.0728663765        2.2541258414  W2        4213            0.0000000000
     12640      4214  TIP3      OH2           -30.4500187078       -0.9086263765       -5.2563941586  W2        4214            0.0000000000
     12641      4214  TIP3      H1            -31.3999687078       -0.8028863765       -5.2050641586  W2        4214            0.0000000000
     12642      4214  TIP3      H2            -30.0982087078       -0.0878863765       -4.9116441586  W2        4214            0.0000000000
     12643      4215  TIP3      OH2           -25.0743587078       -5.6819563765        1.2140558414  W2        4215            0.0000000000
     12644      4215  TIP3      H1            -25.5002287078       -5.9097863765        2.0404558414  W2        4215            0.0000000000
     12645      4215  TIP3      H2            -24.4937787078       -6.4207763765        1.0315858414  W2        4215            0.0000000000
     12646      4216  TIP3      OH2           -22.8714687078       -4.7529063765       -9.7120441586  W2        4216            0.0000000000
     12647      4216  TIP3      H1            -22.5181587078       -5.1329263765       -8.9076941586  W2        4216            0.0000000000
     12648      4216  TIP3      H2            -23.8201187078       -4.8464263765       -9.6251141586  W2        4216            0.0000000000
     12649      4217  TIP3      OH2           -22.4159387078       -1.1300063765        3.6835358414  W2        4217            0.0000000000
     12650      4217  TIP3      H1            -23.0176187078       -1.6857163765        3.1881658414  W2        4217            0.0000000000
     12651      4217  TIP3      H2            -22.1345687078       -0.4630263765        3.0572758414  W2        4217            0.0000000000
     12652      4218  TIP3      OH2           -18.3680287078       -0.2736563765       -9.5110241586  W2        4218            0.0000000000
     12653      4218  TIP3      H1            -17.6242387078        0.3123936235       -9.6508641586  W2        4218            0.0000000000
     12654      4218  TIP3      H2            -19.0622187078        0.2949236235       -9.1777841586  W2        4218            0.0000000000
     12655      4219  TIP3      OH2           -34.2933487078      -13.8972363765        3.0907958414  W2        4219            0.0000000000
     12656      4219  TIP3      H1            -35.1861187078      -13.5586963765        3.0231958414  W2        4219            0.0000000000
     12657      4219  TIP3      H2            -34.3920687078      -14.7526263765        3.5088758414  W2        4219            0.0000000000
     12658      4220  TIP3      OH2           -22.0055387078       -6.0807063765       -7.4852541586  W2        4220            0.0000000000
     12659      4220  TIP3      H1            -22.2827787078       -6.8087763765       -6.9291441586  W2        4220            0.0000000000
     12660      4220  TIP3      H2            -21.0782387078       -5.9615063765       -7.2799941586  W2        4220            0.0000000000
     12661      4221  TIP3      OH2           -34.6421487078       -2.0927963765        1.5257358414  W2        4221            0.0000000000
     12662      4221  TIP3      H1            -34.4251187078       -3.0245563765        1.4947058414  W2        4221            0.0000000000
     12663      4221  TIP3      H2            -34.3957987078       -1.8182963765        2.4090158414  W2        4221            0.0000000000
     12664      4222  TIP3      OH2           -28.7806887078       -3.6412963765      -11.2650441586  W2        4222            0.0000000000
     12665      4222  TIP3      H1            -28.5417087078       -4.3894863765      -11.8121541586  W2        4222            0.0000000000
     12666      4222  TIP3      H2            -29.0495587078       -4.0291263765      -10.4322641586  W2        4222            0.0000000000
     12667      4223  TIP3      OH2           -29.8436287078       -4.0709163765       -8.8087841586  W2        4223            0.0000000000
     12668      4223  TIP3      H1            -29.6968287078       -4.5909363765       -8.0186941586  W2        4223            0.0000000000
     12669      4223  TIP3      H2            -29.8464587078       -3.1641563765       -8.5021941586  W2        4223            0.0000000000
     12670      4224  TIP3      OH2           -33.3905187078       -6.8185863765       -8.2982441586  W2        4224            0.0000000000
     12671      4224  TIP3      H1            -34.0765887078       -6.4663363765       -7.7312741586  W2        4224            0.0000000000
     12672      4224  TIP3      H2            -32.8677287078       -6.0556263765       -8.5448141586  W2        4224            0.0000000000
     12673      4225  TIP3      OH2           -25.5590087078      -14.1562063765        1.9806558414  W2        4225            0.0000000000
     12674      4225  TIP3      H1            -24.8602187078      -14.0823363765        2.6306258414  W2        4225            0.0000000000
     12675      4225  TIP3      H2            -25.9398687078      -15.0207063765        2.1349458414  W2        4225            0.0000000000
     12676      4226  TIP3      OH2           -24.7745187078      -14.5040363765       -6.9221141586  W2        4226            0.0000000000
     12677      4226  TIP3      H1            -24.5546887078      -14.0324963765       -7.7255741586  W2        4226            0.0000000000
     12678      4226  TIP3      H2            -24.2161187078      -14.1097763765       -6.2520541586  W2        4226            0.0000000000
     12679      4227  TIP3      OH2           -27.1059087078       -2.3735563765       -8.0593641586  W2        4227            0.0000000000
     12680      4227  TIP3      H1            -27.9222987078       -1.8765863765       -8.0069341586  W2        4227            0.0000000000
     12681      4227  TIP3      H2            -26.5762787078       -1.8982063765       -8.6994841586  W2        4227            0.0000000000
     12682      4228  TIP3      OH2           -27.5745287078      -12.7761563765       -6.0872741586  W2        4228            0.0000000000
     12683      4228  TIP3      H1            -26.7622687078      -12.2718363765       -6.0411041586  W2        4228            0.0000000000
     12684      4228  TIP3      H2            -27.8192287078      -12.9211863765       -5.1733141586  W2        4228            0.0000000000
     12685      4229  TIP3      OH2           -27.0388887078      -11.7898863765        3.0973858414  W2        4229            0.0000000000
     12686      4229  TIP3      H1            -26.9198587078      -11.2163463765        3.8544258414  W2        4229            0.0000000000
     12687      4229  TIP3      H2            -26.3834287078      -12.4779463765        3.2121658414  W2        4229            0.0000000000
     12688      4230  TIP3      OH2           -26.6908587078      -15.6948563765       -5.1491641586  W2        4230            0.0000000000
     12689      4230  TIP3      H1            -27.0375087078      -15.0777963765       -4.5047341586  W2        4230            0.0000000000
     12690      4230  TIP3      H2            -26.0321687078      -15.1942863765       -5.6306141586  W2        4230            0.0000000000
     12691      4231  TIP3      OH2           -29.7675987078       -1.3298363765       -8.0776741586  W2        4231            0.0000000000
     12692      4231  TIP3      H1            -29.6067287078       -0.5300863765       -8.5784141586  W2        4231            0.0000000000
     12693      4231  TIP3      H2            -29.9648187078       -1.0232363765       -7.1926141586  W2        4231            0.0000000000
     12694      4232  TIP3      OH2           -31.0331587078      -14.6319163765       -8.4619141586  W2        4232            0.0000000000
     12695      4232  TIP3      H1            -31.1166787078      -13.7436063765       -8.1152741586  W2        4232            0.0000000000
     12696      4232  TIP3      H2            -30.1431287078      -14.8972463765       -8.2302341586  W2        4232            0.0000000000
     12697      4233  TIP3      OH2           -20.8343087078      -13.8828563765        3.9323558414  W2        4233            0.0000000000
     12698      4233  TIP3      H1            -21.7507287078      -13.6206863765        3.8447258414  W2        4233            0.0000000000
     12699      4233  TIP3      H2            -20.4988087078      -13.8859563765        3.0358858414  W2        4233            0.0000000000
     12700      4234  TIP3      OH2           -22.2322087078      -10.1327563765       -1.9719141586  W2        4234            0.0000000000
     12701      4234  TIP3      H1            -23.0297687078      -10.5477363765       -2.3004141586  W2        4234            0.0000000000
     12702      4234  TIP3      H2            -21.7870987078      -10.8233863765       -1.4808641586  W2        4234            0.0000000000
     12703      4235  TIP3      OH2           -32.7746287078       -4.2046963765       -9.4014641586  W2        4235            0.0000000000
     12704      4235  TIP3      H1            -32.1824787078       -3.5052163765       -9.1252241586  W2        4235            0.0000000000
     12705      4235  TIP3      H2            -32.3153287078       -4.6377463765      -10.1210041586  W2        4235            0.0000000000
     12706      4236  TIP3      OH2           -34.4587087078      -11.5403963765      -10.2855241586  W2        4236            0.0000000000
     12707      4236  TIP3      H1            -34.5034487078      -10.6010863765      -10.1068241586  W2        4236            0.0000000000
     12708      4236  TIP3      H2            -35.3463887078      -11.7759063765      -10.5553141586  W2        4236            0.0000000000
     12709      4237  TIP3      OH2           -21.1457487078       -0.8765063765       -0.3495641586  W2        4237            0.0000000000
     12710      4237  TIP3      H1            -21.3013187078       -0.1980663765       -1.0066341586  W2        4237            0.0000000000
     12711      4237  TIP3      H2            -20.2131087078       -0.8045763765       -0.1465041586  W2        4237            0.0000000000
     12712      4238  TIP3      OH2           -33.6505087078      -16.7587363765       -1.6124241586  W2        4238            0.0000000000
     12713      4238  TIP3      H1            -33.8795287078      -16.6994863765       -2.5399241586  W2        4238            0.0000000000
     12714      4238  TIP3      H2            -34.0931687078      -17.5501863765       -1.3060141586  W2        4238            0.0000000000
     12715      4239  TIP3      OH2           -34.7201787078       -2.8180263765       -5.4518441586  W2        4239            0.0000000000
     12716      4239  TIP3      H1            -35.5523187078       -2.3457563765       -5.4247041586  W2        4239            0.0000000000
     12717      4239  TIP3      H2            -34.1743487078       -2.3082663765       -6.0505341586  W2        4239            0.0000000000
     12718      4240  TIP3      OH2           -35.4318087078       -0.2056563765        5.8779558414  W2        4240            0.0000000000
     12719      4240  TIP3      H1            -34.8915887078       -0.4222563765        6.6378758414  W2        4240            0.0000000000
     12720      4240  TIP3      H2            -35.9130087078       -1.0110563765        5.6882058414  W2        4240            0.0000000000
     12721      4241  TIP3      OH2           -30.8344687078       -1.2862163765        7.4983758414  W2        4241            0.0000000000
     12722      4241  TIP3      H1            -30.0667487078       -1.7451363765        7.8392958414  W2        4241            0.0000000000
     12723      4241  TIP3      H2            -30.8558487078       -1.5122363765        6.5684958414  W2        4241            0.0000000000
     12724      4242  TIP3      OH2           -26.7425087078       -1.7781563765      -11.1264441586  W2        4242            0.0000000000
     12725      4242  TIP3      H1            -27.3864087078       -2.4092963765      -10.8050741586  W2        4242            0.0000000000
     12726      4242  TIP3      H2            -25.9806787078       -2.3093563765      -11.3580941586  W2        4242            0.0000000000
     12727      4243  TIP3      OH2           -24.2575987078       -2.9061063765        6.2275258414  W2        4243            0.0000000000
     12728      4243  TIP3      H1            -24.6086487078       -3.7628063765        6.4705658414  W2        4243            0.0000000000
     12729      4243  TIP3      H2            -23.5312787078       -2.7634363765        6.8344258414  W2        4243            0.0000000000
     12730      4244  TIP3      OH2           -22.1382187078       -1.9611663765      -10.8926441586  W2        4244            0.0000000000
     12731      4244  TIP3      H1            -21.8551787078       -2.7556463765      -10.4399541586  W2        4244            0.0000000000
     12732      4244  TIP3      H2            -21.3984287078       -1.7280663765      -11.4535341586  W2        4244            0.0000000000
     12733      4245  TIP3      OH2           -35.5248587078       -6.3952463765        6.8323858414  W2        4245            0.0000000000
     12734      4245  TIP3      H1            -35.3808087078       -7.2971763765        6.5460558414  W2        4245            0.0000000000
     12735      4245  TIP3      H2            -36.2971187078       -6.1090363765        6.3446158414  W2        4245            0.0000000000
     12736      4246  TIP3      OH2           -31.1834887078       -6.0516763765      -11.0351541586  W2        4246            0.0000000000
     12737      4246  TIP3      H1            -31.1190787078       -6.8457163765      -10.5045141586  W2        4246            0.0000000000
     12738      4246  TIP3      H2            -30.5305687078       -6.1703963765      -11.7249541586  W2        4246            0.0000000000
     12739      4247  TIP3      OH2           -28.8692487078       -6.4254363765        6.2650258414  W2        4247            0.0000000000
     12740      4247  TIP3      H1            -29.1978687078       -6.1546263765        5.4077658414  W2        4247            0.0000000000
     12741      4247  TIP3      H2            -28.7174287078       -7.3664563765        6.1775258414  W2        4247            0.0000000000
     12742      4248  TIP3      OH2           -25.8311487078       -5.0045063765      -11.2993541586  W2        4248            0.0000000000
     12743      4248  TIP3      H1            -26.0997387078       -4.8242963765      -10.3984641586  W2        4248            0.0000000000
     12744      4248  TIP3      H2            -26.0375887078       -5.9298863765      -11.4307741586  W2        4248            0.0000000000
     12745      4249  TIP3      OH2           -23.1347287078       -6.5097063765        3.6482558414  W2        4249            0.0000000000
     12746      4249  TIP3      H1            -22.3892487078       -5.9213363765        3.5286558414  W2        4249            0.0000000000
     12747      4249  TIP3      H2            -23.8920487078       -5.9277363765        3.7115658414  W2        4249            0.0000000000
     12748      4250  TIP3      OH2           -34.6922087078       -9.1949163765        6.2523158414  W2        4250            0.0000000000
     12749      4250  TIP3      H1            -34.2840887078      -10.0522563765        6.1313758414  W2        4250            0.0000000000
     12750      4250  TIP3      H2            -34.9524487078       -9.1807863765        7.1733458414  W2        4250            0.0000000000
     12751      4251  TIP3      OH2           -30.0341087078       -8.0790563765       -8.7293541586  W2        4251            0.0000000000
     12752      4251  TIP3      H1            -30.4939087078       -8.5632263765       -8.0435041586  W2        4251            0.0000000000
     12753      4251  TIP3      H2            -29.7792387078       -8.7475163765       -9.3653041586  W2        4251            0.0000000000
     12754      4252  TIP3      OH2           -30.7451787078      -10.1863463765        3.6266058414  W2        4252            0.0000000000
     12755      4252  TIP3      H1            -31.3635687078       -9.5116863765        3.9070758414  W2        4252            0.0000000000
     12756      4252  TIP3      H2            -30.4010587078       -9.8649563765        2.7932258414  W2        4252            0.0000000000
     12757      4253  TIP3      OH2           -28.9630687078       -9.8358763765      -10.4670341586  W2        4253            0.0000000000
     12758      4253  TIP3      H1            -29.1435687078       -9.9907563765      -11.3942041586  W2        4253            0.0000000000
     12759      4253  TIP3      H2            -28.0130187078       -9.7280063765      -10.4222441586  W2        4253            0.0000000000
     12760      4254  TIP3      OH2           -25.7253587078       -7.7148163765        6.9040858414  W2        4254            0.0000000000
     12761      4254  TIP3      H1            -24.7722387078       -7.6309063765        6.8766858414  W2        4254            0.0000000000
     12762      4254  TIP3      H2            -25.8858987078       -8.4266363765        7.5235758414  W2        4254            0.0000000000
     12763      4255  TIP3      OH2           -19.5732387078       -7.4814563765      -11.0212241586  W2        4255            0.0000000000
     12764      4255  TIP3      H1            -19.8467587078       -7.9059063765      -11.8343941586  W2        4255            0.0000000000
     12765      4255  TIP3      H2            -19.5338287078       -6.5500063765      -11.2381841586  W2        4255            0.0000000000
     12766      4256  TIP3      OH2           -30.4058087078      -12.8312663765        4.7089158414  W2        4256            0.0000000000
     12767      4256  TIP3      H1            -30.2557187078      -13.5601363765        4.1068858414  W2        4256            0.0000000000
     12768      4256  TIP3      H2            -30.4035687078      -12.0540963765        4.1501358414  W2        4256            0.0000000000
     12769      4257  TIP3      OH2           -29.9932387078      -14.4616863765        2.2016558414  W2        4257            0.0000000000
     12770      4257  TIP3      H1            -29.4574887078      -14.0100163765        1.5495858414  W2        4257            0.0000000000
     12771      4257  TIP3      H2            -30.8452787078      -14.5697063765        1.7790658414  W2        4257            0.0000000000
     12772      4258  TIP3      OH2           -28.4113987078       -9.0220663765        2.4411758414  W2        4258            0.0000000000
     12773      4258  TIP3      H1            -27.6609187078       -9.1783163765        1.8679558414  W2        4258            0.0000000000
     12774      4258  TIP3      H2            -28.7505687078       -8.1704063765        2.1657258414  W2        4258            0.0000000000
     12775      4259  TIP3      OH2           -23.9957787078      -11.2068863765        7.4697058414  W2        4259            0.0000000000
     12776      4259  TIP3      H1            -23.8036487078      -12.1379463765        7.3581558414  W2        4259            0.0000000000
     12777      4259  TIP3      H2            -23.1381487078      -10.7819363765        7.4592458414  W2        4259            0.0000000000
     12778      4260  TIP3      OH2           -22.6790587078       -8.4183663765        5.5469758414  W2        4260            0.0000000000
     12779      4260  TIP3      H1            -22.9605587078       -7.7089063765        4.9693558414  W2        4260            0.0000000000
     12780      4260  TIP3      H2            -21.7366287078       -8.4910663765        5.3960958414  W2        4260            0.0000000000
     12781      4261  TIP3      OH2           -31.9271787078      -11.6329163765        6.6204758414  W2        4261            0.0000000000
     12782      4261  TIP3      H1            -32.6942787078      -12.1654363765        6.4102358414  W2        4261            0.0000000000
     12783      4261  TIP3      H2            -31.2482787078      -11.9428763765        6.0211058414  W2        4261            0.0000000000
     12784      4262  TIP3      OH2           -29.1876887078      -17.0051163765        2.6330158414  W2        4262            0.0000000000
     12785      4262  TIP3      H1            -29.2857287078      -16.0587963765        2.5276358414  W2        4262            0.0000000000
     12786      4262  TIP3      H2            -29.9300687078      -17.3777363765        2.1573658414  W2        4262            0.0000000000
     12787      4263  TIP3      OH2           -27.9236387078      -12.6835763765        6.1968558414  W2        4263            0.0000000000
     12788      4263  TIP3      H1            -28.1590987078      -12.9029063765        7.0983458414  W2        4263            0.0000000000
     12789      4263  TIP3      H2            -28.7069487078      -12.8904563765        5.6871058414  W2        4263            0.0000000000
     12790      4264  TIP3      OH2           -25.2079787078      -13.5562263765        5.2722058414  W2        4264            0.0000000000
     12791      4264  TIP3      H1            -26.1554387078      -13.5242563765        5.4045358414  W2        4264            0.0000000000
     12792      4264  TIP3      H2            -24.8953087078      -14.1815163765        5.9260258414  W2        4264            0.0000000000
     12793      4265  TIP3      OH2           -23.5738287078      -14.9221163765        7.2773958414  W2        4265            0.0000000000
     12794      4265  TIP3      H1            -23.6706487078      -15.8743863765        7.2715858414  W2        4265            0.0000000000
     12795      4265  TIP3      H2            -23.8955187078      -14.6534363765        8.1379458414  W2        4265            0.0000000000
     12796      4266  TIP3      OH2           -33.7468987078      -13.7125363765        6.3249458414  W2        4266            0.0000000000
     12797      4266  TIP3      H1            -33.5351587078      -14.4189263765        5.7146958414  W2        4266            0.0000000000
     12798      4266  TIP3      H2            -33.8581487078      -14.1499363765        7.1690658414  W2        4266            0.0000000000
     12799      4267  TIP3      OH2           -28.9658787078      -17.7113763765        5.3042958414  W2        4267            0.0000000000
     12800      4267  TIP3      H1            -28.2540387078      -18.3511563765        5.2902058414  W2        4267            0.0000000000
     12801      4267  TIP3      H2            -29.0668387078      -17.4445463765        4.3906058414  W2        4267            0.0000000000
     12802      4268  TIP3      OH2           -28.6121287078      -16.0285363765        7.3579258414  W2        4268            0.0000000000
     12803      4268  TIP3      H1            -28.7439087078      -16.5041563765        6.5377758414  W2        4268            0.0000000000
     12804      4268  TIP3      H2            -29.2113887078      -15.2841763765        7.3026358414  W2        4268            0.0000000000
     12805      4269  TIP3      OH2           -29.0658987078        0.8544936235       -9.4656741586  W2        4269            0.0000000000
     12806      4269  TIP3      H1            -28.1328287078        1.0123636235       -9.3218341586  W2        4269            0.0000000000
     12807      4269  TIP3      H2            -29.3300187078        1.5297936235      -10.0905241586  W2        4269            0.0000000000
     12808      4270  TIP3      OH2           -35.4974087078       -4.5091263765       -9.9828641586  W2        4270            0.0000000000
     12809      4270  TIP3      H1            -34.5834887078       -4.4302363765       -9.7094741586  W2        4270            0.0000000000
     12810      4270  TIP3      H2            -35.4900987078       -5.1961663765      -10.6493041586  W2        4270            0.0000000000
     12811      4271  TIP3      OH2           -36.8483487078        0.8837236235       -4.9054741586  W2        4271            0.0000000000
     12812      4271  TIP3      H1            -37.4956387078        0.4218936235       -5.4383541586  W2        4271            0.0000000000
     12813      4271  TIP3      H2            -36.4938887078        0.2120536235       -4.3228541586  W2        4271            0.0000000000
     12814      4272  TIP3      OH2           -35.9784287078       -1.0355763765       -3.1008541586  W2        4272            0.0000000000
     12815      4272  TIP3      H1            -36.3127487078       -1.9158463765       -2.9288341586  W2        4272            0.0000000000
     12816      4272  TIP3      H2            -35.7561887078       -0.6900763765       -2.2362941586  W2        4272            0.0000000000
     12817      4273  TIP3      OH2           -18.4299487078       -0.2259363765       -0.1203741586  W2        4273            0.0000000000
     12818      4273  TIP3      H1            -18.4512787078       -0.0410963765        0.8185658414  W2        4273            0.0000000000
     12819      4273  TIP3      H2            -17.7393287078        0.3424636235       -0.4612341586  W2        4273            0.0000000000
     12820      4274  TIP3      OH2           -18.8666587078       -0.6588263765        2.8015358414  W2        4274            0.0000000000
     12821      4274  TIP3      H1            -19.3537887078       -1.3944163765        2.4302758414  W2        4274            0.0000000000
     12822      4274  TIP3      H2            -18.3173887078       -1.0524363765        3.4794758414  W2        4274            0.0000000000
     12823      4275  TIP3      OH2           -20.4159287078       -4.8690163765        7.4395658414  W2        4275            0.0000000000
     12824      4275  TIP3      H1            -21.2818187078       -4.9740463765        7.8337958414  W2        4275            0.0000000000
     12825      4275  TIP3      H2            -20.0393387078       -4.1106863765        7.8860358414  W2        4275            0.0000000000
     12826      4276  TIP3      OH2           -19.1149587078       -6.6126463765       -7.0461841586  W2        4276            0.0000000000
     12827      4276  TIP3      H1            -18.2648187078       -6.1915563765       -6.9190241586  W2        4276            0.0000000000
     12828      4276  TIP3      H2            -19.1094487078       -7.3526363765       -6.4390441586  W2        4276            0.0000000000
     12829      4277  TIP3      OH2           -18.7203987078       -8.5589063765       -5.2226141586  W2        4277            0.0000000000
     12830      4277  TIP3      H1            -19.4469387078       -9.0386463765       -4.8248541586  W2        4277            0.0000000000
     12831      4277  TIP3      H2            -18.1390687078       -8.3534363765       -4.4904541586  W2        4277            0.0000000000
     12832      4278  TIP3      OH2           -18.9612787078       -5.7741563765       -0.2748541586  W2        4278            0.0000000000
     12833      4278  TIP3      H1            -18.1278587078       -6.1521563765       -0.5554941586  W2        4278            0.0000000000
     12834      4278  TIP3      H2            -18.8492487078       -4.8310363765       -0.3939441586  W2        4278            0.0000000000
     12835      4279  TIP3      OH2           -20.4750487078       -2.8964063765        2.0319858414  W2        4279            0.0000000000
     12836      4279  TIP3      H1            -21.1225187078       -2.5712563765        2.6575058414  W2        4279            0.0000000000
     12837      4279  TIP3      H2            -20.9926487078       -3.3366363765        1.3578158414  W2        4279            0.0000000000
     12838      4280  TIP3      OH2           -18.4520887078       -8.6580563765       -8.8314841586  W2        4280            0.0000000000
     12839      4280  TIP3      H1            -18.9739787078       -8.3016463765       -9.5503941586  W2        4280            0.0000000000
     12840      4280  TIP3      H2            -18.4851687078       -7.9832763765       -8.1533941586  W2        4280            0.0000000000
     12841      4281  TIP3      OH2           -20.1031887078      -11.4184963765      -10.2807741586  W2        4281            0.0000000000
     12842      4281  TIP3      H1            -20.0067487078      -10.7517963765      -10.9608041586  W2        4281            0.0000000000
     12843      4281  TIP3      H2            -20.2432287078      -12.2338663765      -10.7622241586  W2        4281            0.0000000000
     12844      4282  TIP3      OH2           -20.9337187078      -10.0382563765       -4.6597441586  W2        4282            0.0000000000
     12845      4282  TIP3      H1            -21.0838387078      -10.9833963765       -4.6799641586  W2        4282            0.0000000000
     12846      4282  TIP3      H2            -21.2872687078       -9.7571163765       -3.8158341586  W2        4282            0.0000000000
     12847      4283  TIP3      OH2           -35.8984787078       -7.9600363765       -0.6493641586  W2        4283            0.0000000000
     12848      4283  TIP3      H1            -35.7141887078       -8.0418663765       -1.5850741586  W2        4283            0.0000000000
     12849      4283  TIP3      H2            -35.0491887078       -8.0843363765       -0.2257241586  W2        4283            0.0000000000
     12850      4284  TIP3      OH2           -20.0774287078       -8.0679263765        4.9790858414  W2        4284            0.0000000000
     12851      4284  TIP3      H1            -19.4946987078       -8.8026963765        5.1708058414  W2        4284            0.0000000000
     12852      4284  TIP3      H2            -19.5134987078       -7.2958963765        5.0256658414  W2        4284            0.0000000000
     12853      4285  TIP3      OH2           -18.5807187078      -10.1653463765        5.6636258414  W2        4285            0.0000000000
     12854      4285  TIP3      H1            -19.4440487078      -10.5441363765        5.4980958414  W2        4285            0.0000000000
     12855      4285  TIP3      H2            -17.9763487078      -10.9038663765        5.5892058414  W2        4285            0.0000000000
     12856      4286  TIP3      OH2           -20.8558087078      -14.0105163765      -11.1632241586  W2        4286            0.0000000000
     12857      4286  TIP3      H1            -20.2452287078      -14.3818363765      -10.5264041586  W2        4286            0.0000000000
     12858      4286  TIP3      H2            -21.6926587078      -14.4318263765      -10.9672241586  W2        4286            0.0000000000
     12859      4287  TIP3      OH2           -21.2232387078      -12.4556763765       -6.1972341586  W2        4287            0.0000000000
     12860      4287  TIP3      H1            -20.9435287078      -13.3626363765       -6.0730641586  W2        4287            0.0000000000
     12861      4287  TIP3      H2            -20.4640687078      -12.0215263765       -6.5863141586  W2        4287            0.0000000000
     12862      4288  TIP3      OH2           -20.6114087078      -11.8739363765       -0.7613441586  W2        4288            0.0000000000
     12863      4288  TIP3      H1            -19.6786087078      -11.6619463765       -0.7957441586  W2        4288            0.0000000000
     12864      4288  TIP3      H2            -20.8466587078      -11.7727263765        0.1609558414  W2        4288            0.0000000000
     12865      4289  TIP3      OH2           -20.5822187078      -11.1374063765        2.0145958414  W2        4289            0.0000000000
     12866      4289  TIP3      H1            -21.4250887078      -10.8693663765        2.3805758414  W2        4289            0.0000000000
     12867      4289  TIP3      H2            -20.1397887078      -10.3152163765        1.8037058414  W2        4289            0.0000000000
     12868      4290  TIP3      OH2           -36.3009987078      -12.6895363765        5.4915158414  W2        4290            0.0000000000
     12869      4290  TIP3      H1            -35.3815087078      -12.8117063765        5.7278258414  W2        4290            0.0000000000
     12870      4290  TIP3      H2            -36.7505487078      -13.4395663765        5.8808658414  W2        4290            0.0000000000
     12871      4291  TIP3      OH2           -18.2990587078      -17.1573863765        7.3680958414  W2        4291            0.0000000000
     12872      4291  TIP3      H1            -17.9493587078      -17.8110363765        6.7625658414  W2        4291            0.0000000000
     12873      4291  TIP3      H2            -18.1521087078      -16.3199763765        6.9283558414  W2        4291            0.0000000000
     12874      4292  TIP3      OH2           -20.6097587078      -15.1927463765       -6.1490341586  W2        4292            0.0000000000
     12875      4292  TIP3      H1            -20.4272587078      -15.6415963765       -5.3235341586  W2        4292            0.0000000000
     12876      4292  TIP3      H2            -21.2094687078      -15.7773063765       -6.6125741586  W2        4292            0.0000000000
     12877      4293  TIP3      OH2           -35.0797487078      -14.3773763765       -1.6171941586  W2        4293            0.0000000000
     12878      4293  TIP3      H1            -34.6345887078      -15.1691263765       -1.3152241586  W2        4293            0.0000000000
     12879      4293  TIP3      H2            -34.6134487078      -13.6608563765       -1.1866341586  W2        4293            0.0000000000
     12880      4294  TIP3      OH2           -36.7757187078      -11.3780763765       -0.5481741586  W2        4294            0.0000000000
     12881      4294  TIP3      H1            -36.2837387078      -11.5990263765       -1.3389741586  W2        4294            0.0000000000
     12882      4294  TIP3      H2            -36.4136287078      -10.5377363765       -0.2672241586  W2        4294            0.0000000000
     12883      4295  TIP3      OH2           -18.7793387078      -15.0479263765        5.7172258414  W2        4295            0.0000000000
     12884      4295  TIP3      H1            -19.6967687078      -14.7772163765        5.6815758414  W2        4295            0.0000000000
     12885      4295  TIP3      H2            -18.6563987078      -15.5830863765        4.9331958414  W2        4295            0.0000000000
     12886      4296  TIP3      OH2           -18.7431387078      -15.1249363765       -9.6210041586  W2        4296            0.0000000000
     12887      4296  TIP3      H1            -18.3308787078      -15.8463663765      -10.0962041586  W2        4296            0.0000000000
     12888      4296  TIP3      H2            -18.0614887078      -14.4554763765       -9.5625741586  W2        4296            0.0000000000
     12889      4297  TIP3      OH2           -36.4620687078      -15.1201663765       -6.4939341586  W2        4297            0.0000000000
     12890      4297  TIP3      H1            -37.3872287078      -14.9115063765       -6.6233841586  W2        4297            0.0000000000
     12891      4297  TIP3      H2            -36.0080787078      -14.6360863765       -7.1837041586  W2        4297            0.0000000000
     12892      4298  TIP3      OH2           -21.6913487078       -0.1359963765       -4.5481941586  W2        4298            0.0000000000
     12893      4298  TIP3      H1            -21.0390587078       -0.4837863765       -5.1562841586  W2        4298            0.0000000000
     12894      4298  TIP3      H2            -21.1809687078        0.3523236235       -3.9022241586  W2        4298            0.0000000000
     12895      4299  TIP3      OH2           -36.4985287078      -16.3822663765        1.8503158414  W2        4299            0.0000000000
     12896      4299  TIP3      H1            -37.1634787078      -16.6282363765        2.4934058414  W2        4299            0.0000000000
     12897      4299  TIP3      H2            -36.9413987078      -15.7602263765        1.2731158414  W2        4299            0.0000000000
     12898      4300  TIP3      OH2           -34.3065987078       -3.2068563765        5.9948958414  W2        4300            0.0000000000
     12899      4300  TIP3      H1            -35.1273487078       -3.0322063765        5.5343658414  W2        4300            0.0000000000
     12900      4300  TIP3      H2            -34.5588187078       -3.2803863765        6.9153358414  W2        4300            0.0000000000
     12901      4301  TIP3      OH2           -31.3523087078       -2.2327363765        2.2532958414  W2        4301            0.0000000000
     12902      4301  TIP3      H1            -31.7771987078       -1.4228863765        1.9707558414  W2        4301            0.0000000000
     12903      4301  TIP3      H2            -30.4480287078       -2.1473263765        1.9512758414  W2        4301            0.0000000000
     12904      4302  TIP3      OH2           -27.0411687078       -0.8337363765        5.2126658414  W2        4302            0.0000000000
     12905      4302  TIP3      H1            -26.8564187078       -1.1671263765        6.0906958414  W2        4302            0.0000000000
     12906      4302  TIP3      H2            -26.1947187078       -0.5238763765        4.8905858414  W2        4302            0.0000000000
     12907      4303  TIP3      OH2           -24.6961287078        0.4521536235        4.4568058414  W2        4303            0.0000000000
     12908      4303  TIP3      H1            -24.0192387078       -0.1806163765        4.2167258414  W2        4303            0.0000000000
     12909      4303  TIP3      H2            -24.3742487078        0.8532036235        5.2641358414  W2        4303            0.0000000000
     12910      4304  TIP3      OH2           -19.7787487078      -16.9582963765        3.5363058414  W2        4304            0.0000000000
     12911      4304  TIP3      H1            -20.5913987078      -16.6332663765        3.1487758414  W2        4304            0.0000000000
     12912      4304  TIP3      H2            -19.5458987078      -17.7184463765        3.0032158414  W2        4304            0.0000000000
     12913      4305  TIP3      OH2           -33.9506387078        1.0236536235        2.3008258414  W2        4305            0.0000000000
     12914      4305  TIP3      H1            -34.6709987078        1.4637536235        1.8495958414  W2        4305            0.0000000000
     12915      4305  TIP3      H2            -34.3162387078        0.7731236235        3.1492258414  W2        4305            0.0000000000
     12916      4306  TIP3      OH2           -31.4833787078        0.6240436235        1.3305458414  W2        4306            0.0000000000
     12917      4306  TIP3      H1            -32.3481587078        0.6958936235        1.7345558414  W2        4306            0.0000000000
     12918      4306  TIP3      H2            -31.5384787078        1.1707736235        0.5467958414  W2        4306            0.0000000000
     12919      4307  TIP3      OH2           -26.7728187078        0.5119336235        0.5061458414  W2        4307            0.0000000000
     12920      4307  TIP3      H1            -27.2294187078        1.0409036235       -0.1480141586  W2        4307            0.0000000000
     12921      4307  TIP3      H2            -26.6100187078        1.1150736235        1.2313758414  W2        4307            0.0000000000
     12922      4308  TIP3      OH2           -24.4451887078       -0.6101063765        1.4511758414  W2        4308            0.0000000000
     12923      4308  TIP3      H1            -25.3498187078       -0.4450863765        1.1853858414  W2        4308            0.0000000000
     12924      4308  TIP3      H2            -24.0163287078        0.2431136235        1.3855158414  W2        4308            0.0000000000
     12925      4309  TIP3      OH2           -21.8409987078        0.9598036235        1.7459558414  W2        4309            0.0000000000
     12926      4309  TIP3      H1            -22.0227987078        1.8756936235        1.5354458414  W2        4309            0.0000000000
     12927      4309  TIP3      H2            -21.6642187078        0.5495136235        0.8994158414  W2        4309            0.0000000000
     12928      4310  TIP3      OH2           -34.5358287078       -0.3530963765       -0.7889941586  W2        4310            0.0000000000
     12929      4310  TIP3      H1            -34.5542287078       -0.7785863765        0.0682358414  W2        4310            0.0000000000
     12930      4310  TIP3      H2            -33.7310387078       -0.6715963765       -1.1977741586  W2        4310            0.0000000000
     12931      4311  TIP3      OH2           -32.3945187078       -1.6432263765       -2.1340041586  W2        4311            0.0000000000
     12932      4311  TIP3      H1            -32.6134487078       -2.5594863765       -1.9644041586  W2        4311            0.0000000000
     12933      4311  TIP3      H2            -31.5702987078       -1.5031863765       -1.6678641586  W2        4311            0.0000000000
     12934      4312  TIP3      OH2           -29.8572687078       -1.1732963765       -1.2852041586  W2        4312            0.0000000000
     12935      4312  TIP3      H1            -29.6446987078       -2.0613963765       -1.5721141586  W2        4312            0.0000000000
     12936      4312  TIP3      H2            -29.7927587078       -1.2075263765       -0.3308041586  W2        4312            0.0000000000
     12937      4313  TIP3      OH2           -26.3488987078      -15.5092363765       -2.1408741586  W2        4313            0.0000000000
     12938      4313  TIP3      H1            -27.0232187078      -16.1386763765       -1.8852941586  W2        4313            0.0000000000
     12939      4313  TIP3      H2            -25.7849787078      -15.9933463765       -2.7440841586  W2        4313            0.0000000000
     12940      4314  TIP3      OH2           -21.2061787078      -17.4018363765       -2.0281641586  W2        4314            0.0000000000
     12941      4314  TIP3      H1            -20.6024187078      -16.8542963765       -2.5300641586  W2        4314            0.0000000000
     12942      4314  TIP3      H2            -22.0759787078      -17.0827963765       -2.2687541586  W2        4314            0.0000000000
     12943      4315  TIP3      OH2           -19.4791387078      -16.2629663765       -3.6950741586  W2        4315            0.0000000000
     12944      4315  TIP3      H1            -18.8673887078      -16.7773963765       -4.2217141586  W2        4315            0.0000000000
     12945      4315  TIP3      H2            -19.0967987078      -15.3857563765       -3.6716341586  W2        4315            0.0000000000
     12946      4316  TIP3      OH2           -34.0221487078      -16.8752063765       -4.3188841586  W2        4316            0.0000000000
     12947      4316  TIP3      H1            -34.7991687078      -17.1097163765       -4.8262941586  W2        4316            0.0000000000
     12948      4316  TIP3      H2            -33.4917887078      -17.6719963765       -4.3100841586  W2        4316            0.0000000000
     12949      4317  TIP3      OH2           -35.1858087078      -17.0773963765       -8.5152741586  W2        4317            0.0000000000
     12950      4317  TIP3      H1            -34.7467387078      -16.4663463765       -9.1069241586  W2        4317            0.0000000000
     12951      4317  TIP3      H2            -35.8195687078      -16.5389863765       -8.0412741586  W2        4317            0.0000000000
     12952      4318  TIP3      OH2           -29.4428887078      -16.9484963765       -4.5055741586  W2        4318            0.0000000000
     12953      4318  TIP3      H1            -28.5685487078      -16.5600663765       -4.5351441586  W2        4318            0.0000000000
     12954      4318  TIP3      H2            -29.5788087078      -17.1637163765       -3.5828541586  W2        4318            0.0000000000
     12955      4319  TIP3      OH2           -23.8860487078      -16.9185163765       -2.8564041586  W2        4319            0.0000000000
     12956      4319  TIP3      H1            -23.8098887078      -16.8233563765       -3.8058041586  W2        4319            0.0000000000
     12957      4319  TIP3      H2            -24.1611287078      -17.8262263765       -2.7274941586  W2        4319            0.0000000000
     12958      4320  TIP3      OH2           -22.5327887078      -16.8927363765       -7.1639041586  W2        4320            0.0000000000
     12959      4320  TIP3      H1            -23.2356787078      -16.2778163765       -7.3737641586  W2        4320            0.0000000000
     12960      4320  TIP3      H2            -22.9776487078      -17.7300663765       -7.0328141586  W2        4320            0.0000000000
     12961      4321  TIP3      OH2           -35.2848587078       -1.1291763765       -7.6177641586  W2        4321            0.0000000000
     12962      4321  TIP3      H1            -35.9698687078       -1.1672863765       -8.2852541586  W2        4321            0.0000000000
     12963      4321  TIP3      H2            -35.2811387078       -0.2164163765       -7.3295541586  W2        4321            0.0000000000
     12964      4322  TIP3      OH2           -33.3248987078      -15.1612463765      -10.0728641586  W2        4322            0.0000000000
     12965      4322  TIP3      H1            -32.8335587078      -15.7910063765      -10.6003141586  W2        4322            0.0000000000
     12966      4322  TIP3      H2            -32.7012687078      -14.8653063765       -9.4097441586  W2        4322            0.0000000000
     12967      4323  TIP3      OH2           -28.2988887078      -14.8680963765       -7.6158141586  W2        4323            0.0000000000
     12968      4323  TIP3      H1            -28.1207587078      -15.5147763765       -6.9329541586  W2        4323            0.0000000000
     12969      4323  TIP3      H2            -28.3522687078      -14.0343263765       -7.1487041586  W2        4323            0.0000000000
     12970      4324  TIP3      OH2           -26.4205087078        0.0803136235       -9.2201441586  W2        4324            0.0000000000
     12971      4324  TIP3      H1            -25.5544887078        0.4470536235       -9.3983241586  W2        4324            0.0000000000
     12972      4324  TIP3      H2            -26.6672287078       -0.3588863765      -10.0340641586  W2        4324            0.0000000000
     12973      4325  TIP3      OH2           -19.7115487078       -0.3566563765       -6.5410341586  W2        4325            0.0000000000
     12974      4325  TIP3      H1            -19.9058387078       -1.1044463765       -7.1060741586  W2        4325            0.0000000000
     12975      4325  TIP3      H2            -19.7505387078        0.4013536235       -7.1242441586  W2        4325            0.0000000000
     12976      4326  TIP3      OH2           -34.0643487078      -16.3610163765        5.1987358414  W2        4326            0.0000000000
     12977      4326  TIP3      H1            -34.4305287078      -17.1267563765        5.6412058414  W2        4326            0.0000000000
     12978      4326  TIP3      H2            -33.1514987078      -16.3319963765        5.4852458414  W2        4326            0.0000000000
     12979      4327  TIP3      OH2           -32.0912687078      -17.0105763765        6.7344458414  W2        4327            0.0000000000
     12980      4327  TIP3      H1            -31.1929087078      -17.2845563765        6.5497858414  W2        4327            0.0000000000
     12981      4327  TIP3      H2            -32.4779587078      -17.7529763765        7.1987058414  W2        4327            0.0000000000
     12982      4328  TIP3      OH2           -33.4667387078       -0.2090963765      -10.5925541586  W2        4328            0.0000000000
     12983      4328  TIP3      H1            -33.7342787078        0.0771936235       -9.7192441586  W2        4328            0.0000000000
     12984      4328  TIP3      H2            -32.6954787078       -0.7551763765      -10.4403041586  W2        4328            0.0000000000
     12985      4329  TIP3      OH2           -23.6700387078      -17.6780463765        6.9167258414  W2        4329            0.0000000000
     12986      4329  TIP3      H1            -23.5933187078      -18.1039763765        7.7704958414  W2        4329            0.0000000000
     12987      4329  TIP3      H2            -22.7763787078      -17.6645763765        6.5740758414  W2        4329            0.0000000000
     12988      4330  TIP3      OH2           -20.4939287078       -1.6054163765        5.6091458414  W2        4330            0.0000000000
     12989      4330  TIP3      H1            -21.2757387078       -1.7916163765        5.0892058414  W2        4330            0.0000000000
     12990      4330  TIP3      H2            -20.5659387078       -0.6759863765        5.8263958414  W2        4330            0.0000000000
     12991      4331  TIP3      OH2            -6.0878887078       -7.7189763765       -4.3601341586  W2        4331            0.0000000000
     12992      4331  TIP3      H1             -5.9987787078       -6.7751563765       -4.4924241586  W2        4331            0.0000000000
     12993      4331  TIP3      H2             -6.7261287078       -7.9943363765       -5.0181941586  W2        4331            0.0000000000
     12994      4332  TIP3      OH2            -7.1547587078       -8.4639063765       -0.9413141586  W2        4332            0.0000000000
     12995      4332  TIP3      H1             -7.1930087078       -9.1102763765       -0.2363541586  W2        4332            0.0000000000
     12996      4332  TIP3      H2             -7.4771087078       -8.9304663765       -1.7124441586  W2        4332            0.0000000000
     12997      4333  TIP3      OH2           -14.7862587078       -8.8496963765        0.6516758414  W2        4333            0.0000000000
     12998      4333  TIP3      H1            -14.7450487078       -9.4753663765        1.3749158414  W2        4333            0.0000000000
     12999      4333  TIP3      H2            -14.0834887078       -8.2258363765        0.8337158414  W2        4333            0.0000000000
     13000      4334  TIP3      OH2            -3.4487387078       -5.5248663765       -2.6398041586  W2        4334            0.0000000000
     13001      4334  TIP3      H1             -3.8894687078       -6.2452663765       -2.1892441586  W2        4334            0.0000000000
     13002      4334  TIP3      H2             -3.4617687078       -4.8041463765       -2.0100341586  W2        4334            0.0000000000
     13003      4335  TIP3      OH2           -13.8629487078       -4.3998063765       -0.8134141586  W2        4335            0.0000000000
     13004      4335  TIP3      H1            -14.2324287078       -5.2017563765       -1.1829841586  W2        4335            0.0000000000
     13005      4335  TIP3      H2            -12.9218387078       -4.5683163765       -0.7670741586  W2        4335            0.0000000000
     13006      4336  TIP3      OH2           -17.2528987078      -10.7395463765       -5.4205341586  W2        4336            0.0000000000
     13007      4336  TIP3      H1            -17.7005587078       -9.8936763765       -5.4388841586  W2        4336            0.0000000000
     13008      4336  TIP3      H2            -17.8137787078      -11.3191263765       -5.9360241586  W2        4336            0.0000000000
     13009      4337  TIP3      OH2           -16.5422887078       -8.5775863765       -3.2947341586  W2        4337            0.0000000000
     13010      4337  TIP3      H1            -16.3289387078       -9.3474263765       -2.7674341586  W2        4337            0.0000000000
     13011      4337  TIP3      H2            -15.8045287078       -8.4879163765       -3.8979741586  W2        4337            0.0000000000
     13012      4338  TIP3      OH2            -6.3371887078       -0.4206963765       -2.4277641586  W2        4338            0.0000000000
     13013      4338  TIP3      H1             -5.7175487078       -1.0972263765       -2.7008441586  W2        4338            0.0000000000
     13014      4338  TIP3      H2             -6.5454487078       -0.6386163765       -1.5192741586  W2        4338            0.0000000000
     13015      4339  TIP3      OH2            -8.7653187078       -6.0317663765       -0.5352141586  W2        4339            0.0000000000
     13016      4339  TIP3      H1             -8.4615287078       -6.7176263765       -1.1298041586  W2        4339            0.0000000000
     13017      4339  TIP3      H2             -8.0439187078       -5.9128963765        0.0825858414  W2        4339            0.0000000000
     13018      4340  TIP3      OH2            -0.1023387078      -14.4302363765        0.3254058414  W2        4340            0.0000000000
     13019      4340  TIP3      H1             -0.0531187078      -13.8201163765        1.0613158414  W2        4340            0.0000000000
     13020      4340  TIP3      H2              0.3231712922      -13.9691463765       -0.3974841586  W2        4340            0.0000000000
     13021      4341  TIP3      OH2            -5.6246187078      -11.6375263765       -0.2077341586  W2        4341            0.0000000000
     13022      4341  TIP3      H1             -5.4820287078      -12.5838263765       -0.1875741586  W2        4341            0.0000000000
     13023      4341  TIP3      H2             -5.7307187078      -11.4305463765       -1.1362441586  W2        4341            0.0000000000
     13024      4342  TIP3      OH2           -12.4697887078      -13.5358863765       -2.9352541586  W2        4342            0.0000000000
     13025      4342  TIP3      H1            -12.4266787078      -12.6760363765       -3.3536241586  W2        4342            0.0000000000
     13026      4342  TIP3      H2            -12.9273787078      -14.0884163765       -3.5689341586  W2        4342            0.0000000000
     13027      4343  TIP3      OH2            -4.7475187078      -13.4053263765       -4.5344241586  W2        4343            0.0000000000
     13028      4343  TIP3      H1             -4.1010887078      -13.7340063765       -3.9096641586  W2        4343            0.0000000000
     13029      4343  TIP3      H2             -4.2375787078      -12.8874263765       -5.1572841586  W2        4343            0.0000000000
     13030      4344  TIP3      OH2           -15.8496387078      -11.1393063765       -2.1731141586  W2        4344            0.0000000000
     13031      4344  TIP3      H1            -15.1959787078      -11.6891363765       -1.7411041586  W2        4344            0.0000000000
     13032      4344  TIP3      H2            -15.8257087078      -11.4134063765       -3.0899141586  W2        4344            0.0000000000
     13033      4345  TIP3      OH2           -10.6931887078       -9.5891763765       -2.9579641586  W2        4345            0.0000000000
     13034      4345  TIP3      H1            -10.0770887078      -10.1156363765       -2.4485641586  W2        4345            0.0000000000
     13035      4345  TIP3      H2            -11.2793087078      -10.2293063765       -3.3616041586  W2        4345            0.0000000000
     13036      4346  TIP3      OH2             0.2891212922      -12.9523163765        2.5613858414  W2        4346            0.0000000000
     13037      4346  TIP3      H1             -0.3994187078      -12.2942463765        2.4660458414  W2        4346            0.0000000000
     13038      4346  TIP3      H2              0.3045812922      -13.1495263765        3.4979258414  W2        4346            0.0000000000
     13039      4347  TIP3      OH2           -13.6595987078      -14.6180463765        1.1388258414  W2        4347            0.0000000000
     13040      4347  TIP3      H1            -13.8784287078      -14.0879863765        0.3724258414  W2        4347            0.0000000000
     13041      4347  TIP3      H2            -14.3275087078      -14.3914963765        1.7859658414  W2        4347            0.0000000000
     13042      4348  TIP3      OH2            -6.2906187078       -5.1179363765       -5.3172641586  W2        4348            0.0000000000
     13043      4348  TIP3      H1             -6.5861087078       -5.4407063765       -6.1685741586  W2        4348            0.0000000000
     13044      4348  TIP3      H2             -6.6148387078       -4.2182663765       -5.2760041586  W2        4348            0.0000000000
     13045      4349  TIP3      OH2           -11.0904587078       -6.9424763765        1.4261958414  W2        4349            0.0000000000
     13046      4349  TIP3      H1            -11.8305487078       -6.3443263765        1.5297158414  W2        4349            0.0000000000
     13047      4349  TIP3      H2            -10.3765087078       -6.3885163765        1.1105558414  W2        4349            0.0000000000
     13048      4350  TIP3      OH2            -2.9836787078      -14.1143963765       -2.5538341586  W2        4350            0.0000000000
     13049      4350  TIP3      H1             -3.1988787078      -14.8800563765       -2.0212341586  W2        4350            0.0000000000
     13050      4350  TIP3      H2             -2.3279387078      -13.6419363765       -2.0409841586  W2        4350            0.0000000000
     13051      4351  TIP3      OH2           -14.0658687078      -12.7258663765       -0.9089541586  W2        4351            0.0000000000
     13052      4351  TIP3      H1            -13.4522387078      -12.0931063765       -0.5357141586  W2        4351            0.0000000000
     13053      4351  TIP3      H2            -13.5537987078      -13.1983663765       -1.5652641586  W2        4351            0.0000000000
     13054      4352  TIP3      OH2           -12.6830287078       -4.9781763765        2.2133458414  W2        4352            0.0000000000
     13055      4352  TIP3      H1            -12.6882687078       -4.0988263765        1.8352758414  W2        4352            0.0000000000
     13056      4352  TIP3      H2            -13.5366187078       -5.0617663765        2.6383358414  W2        4352            0.0000000000
     13057      4353  TIP3      OH2           -16.5619387078       -5.3073863765       -7.0047241586  W2        4353            0.0000000000
     13058      4353  TIP3      H1            -16.8338487078       -5.0782863765       -7.8934341586  W2        4353            0.0000000000
     13059      4353  TIP3      H2            -16.5163687078       -4.4695063765       -6.5441941586  W2        4353            0.0000000000
     13060      4354  TIP3      OH2            -2.9369687078       -3.6857963765       -0.2918741586  W2        4354            0.0000000000
     13061      4354  TIP3      H1             -3.8785987078       -3.6274063765       -0.1301841586  W2        4354            0.0000000000
     13062      4354  TIP3      H2             -2.6603587078       -2.7797463765       -0.4289041586  W2        4354            0.0000000000
     13063      4355  TIP3      OH2            -2.6362687078      -15.3992663765        1.1255158414  W2        4355            0.0000000000
     13064      4355  TIP3      H1             -3.3723487078      -14.7885563765        1.0876458414  W2        4355            0.0000000000
     13065      4355  TIP3      H2             -1.9528687078      -14.9843663765        0.5991558414  W2        4355            0.0000000000
     13066      4356  TIP3      OH2            -9.6331287078      -17.3125363765       -1.4086841586  W2        4356            0.0000000000
     13067      4356  TIP3      H1             -9.7507087078      -18.2609363765       -1.4628541586  W2        4356            0.0000000000
     13068      4356  TIP3      H2            -10.4881187078      -16.9799263765       -1.1355741586  W2        4356            0.0000000000
     13069      4357  TIP3      OH2            -4.6848487078       -1.9044463765       -3.6667141586  W2        4357            0.0000000000
     13070      4357  TIP3      H1             -4.2596187078       -2.6116563765       -4.1517541586  W2        4357            0.0000000000
     13071      4357  TIP3      H2             -4.3678487078       -1.1031763765       -4.0834941586  W2        4357            0.0000000000
     13072      4358  TIP3      OH2            -3.5251987078       -4.0035963765       -5.1580541586  W2        4358            0.0000000000
     13073      4358  TIP3      H1             -3.7827187078       -4.6935863765       -5.7694641586  W2        4358            0.0000000000
     13074      4358  TIP3      H2             -3.4541187078       -4.4464763765       -4.3124641586  W2        4358            0.0000000000
     13075      4359  TIP3      OH2            -1.8391787078       -5.4369263765        3.3192958414  W2        4359            0.0000000000
     13076      4359  TIP3      H1             -1.6995487078       -6.0286763765        2.5799958414  W2        4359            0.0000000000
     13077      4359  TIP3      H2             -1.6718987078       -4.5643363765        2.9631758414  W2        4359            0.0000000000
     13078      4360  TIP3      OH2            -7.3666387078       -8.4749763765       -6.9081041586  W2        4360            0.0000000000
     13079      4360  TIP3      H1             -8.0780887078       -7.9400063765       -7.2600541586  W2        4360            0.0000000000
     13080      4360  TIP3      H2             -6.6756787078       -8.4197663765       -7.5682141586  W2        4360            0.0000000000
     13081      4361  TIP3      OH2            -7.3127187078      -10.0175463765       -9.8696041586  W2        4361            0.0000000000
     13082      4361  TIP3      H1             -6.6117287078       -9.9948563765       -9.2182041586  W2        4361            0.0000000000
     13083      4361  TIP3      H2             -7.0104287078      -10.6455763765      -10.5256741586  W2        4361            0.0000000000
     13084      4362  TIP3      OH2             0.0027512922       -9.0971263765        1.3853358414  W2        4362            0.0000000000
     13085      4362  TIP3      H1             -0.6498387078       -8.4025663765        1.4744258414  W2        4362            0.0000000000
     13086      4362  TIP3      H2              0.4677812922       -8.8870363765        0.5754958414  W2        4362            0.0000000000
     13087      4363  TIP3      OH2            -3.9608687078       -8.2656463765       -5.9565141586  W2        4363            0.0000000000
     13088      4363  TIP3      H1             -4.6927687078       -8.0372763765       -5.3834541586  W2        4363            0.0000000000
     13089      4363  TIP3      H2             -3.5136487078       -8.9793763765       -5.5017641586  W2        4363            0.0000000000
     13090      4364  TIP3      OH2            -4.0635187078      -10.0913863765        3.1111858414  W2        4364            0.0000000000
     13091      4364  TIP3      H1             -3.9836087078       -9.3279463765        3.6830358414  W2        4364            0.0000000000
     13092      4364  TIP3      H2             -4.6647487078       -9.8121463765        2.4206958414  W2        4364            0.0000000000
     13093      4365  TIP3      OH2           -12.3154987078       -7.6350263765       -4.0740141586  W2        4365            0.0000000000
     13094      4365  TIP3      H1            -12.6459787078       -8.0056863765       -4.8923141586  W2        4365            0.0000000000
     13095      4365  TIP3      H2            -11.7270887078       -8.3056263765       -3.7271841586  W2        4365            0.0000000000
     13096      4366  TIP3      OH2           -10.9487487078       -4.2069663765       -1.3927941586  W2        4366            0.0000000000
     13097      4366  TIP3      H1            -11.0436187078       -4.7856563765       -2.1493341586  W2        4366            0.0000000000
     13098      4366  TIP3      H2            -10.2193887078       -4.5783963765       -0.8965141586  W2        4366            0.0000000000
     13099      4367  TIP3      OH2           -11.9489487078       -8.8664663765       -0.4405141586  W2        4367            0.0000000000
     13100      4367  TIP3      H1            -11.3836987078       -8.7450463765       -1.2033941586  W2        4367            0.0000000000
     13101      4367  TIP3      H2            -11.6300587078       -8.2289663765        0.1983358414  W2        4367            0.0000000000
     13102      4368  TIP3      OH2            -5.6397287078       -3.3632763765        0.2935358414  W2        4368            0.0000000000
     13103      4368  TIP3      H1             -5.8800687078       -2.7009663765        0.9414558414  W2        4368            0.0000000000
     13104      4368  TIP3      H2             -5.8379087078       -4.1977563765        0.7184958414  W2        4368            0.0000000000
     13105      4369  TIP3      OH2           -11.0688787078       -4.4671963765        4.2766758414  W2        4369            0.0000000000
     13106      4369  TIP3      H1            -11.3801287078       -3.6848763765        4.7319958414  W2        4369            0.0000000000
     13107      4369  TIP3      H2            -11.7188587078       -4.6202863765        3.5908758414  W2        4369            0.0000000000
     13108      4370  TIP3      OH2            -5.0899187078       -9.1033563765       -8.2713941586  W2        4370            0.0000000000
     13109      4370  TIP3      H1             -4.5103687078       -8.9533263765       -7.5245041586  W2        4370            0.0000000000
     13110      4370  TIP3      H2             -4.6759187078       -8.6326163765       -8.9947541586  W2        4370            0.0000000000
     13111      4371  TIP3      OH2           -14.1488887078       -8.2690863765        3.5052458414  W2        4371            0.0000000000
     13112      4371  TIP3      H1            -14.0785687078       -7.6184063765        4.2037458414  W2        4371            0.0000000000
     13113      4371  TIP3      H2            -15.0396687078       -8.1663363765        3.1703358414  W2        4371            0.0000000000
     13114      4372  TIP3      OH2            -7.3634287078       -2.3665063765       -4.8360841586  W2        4372            0.0000000000
     13115      4372  TIP3      H1             -6.8896687078       -2.0708763765       -4.0586641586  W2        4372            0.0000000000
     13116      4372  TIP3      H2             -7.9264987078       -1.6283463765       -5.0691241586  W2        4372            0.0000000000
     13117      4373  TIP3      OH2           -12.8292887078       -2.3956963765        5.0400558414  W2        4373            0.0000000000
     13118      4373  TIP3      H1            -12.8217587078       -2.5317263765        4.0926058414  W2        4373            0.0000000000
     13119      4373  TIP3      H2            -13.7452487078       -2.5128863765        5.2920558414  W2        4373            0.0000000000
     13120      4374  TIP3      OH2            -1.3910787078      -17.3533163765       -8.4584241586  W2        4374            0.0000000000
     13121      4374  TIP3      H1             -2.2910087078      -17.2144163765       -8.1633641586  W2        4374            0.0000000000
     13122      4374  TIP3      H2             -1.1392387078      -16.5218563765       -8.8602541586  W2        4374            0.0000000000
     13123      4375  TIP3      OH2           -13.3252287078       -8.5655963765       -6.4847341586  W2        4375            0.0000000000
     13124      4375  TIP3      H1            -13.6170987078       -7.7974263765       -6.9756041586  W2        4375            0.0000000000
     13125      4375  TIP3      H2            -13.9997087078       -9.2249763765       -6.6475941586  W2        4375            0.0000000000
     13126      4376  TIP3      OH2            -0.2019387078       -2.9870763765      -10.0820341586  W2        4376            0.0000000000
     13127      4376  TIP3      H1             -0.1285887078       -2.0480563765       -9.9115041586  W2        4376            0.0000000000
     13128      4376  TIP3      H2              0.7035712922       -3.2922163765      -10.1383041586  W2        4376            0.0000000000
     13129      4377  TIP3      OH2           -17.2322187078       -6.2026763765        2.3302458414  W2        4377            0.0000000000
     13130      4377  TIP3      H1            -17.7333787078       -6.2307363765        1.5152158414  W2        4377            0.0000000000
     13131      4377  TIP3      H2            -17.2268487078       -7.1083563765        2.6399758414  W2        4377            0.0000000000
     13132      4378  TIP3      OH2           -17.4819487078       -3.4222963765       -0.7857341586  W2        4378            0.0000000000
     13133      4378  TIP3      H1            -16.5358887078       -3.5665963765       -0.8047841586  W2        4378            0.0000000000
     13134      4378  TIP3      H2            -17.5943187078       -2.6380163765       -0.2486141586  W2        4378            0.0000000000
     13135      4379  TIP3      OH2             0.7159012922       -2.7563263765        4.8966358414  W2        4379            0.0000000000
     13136      4379  TIP3      H1              0.6665812922       -3.7115163765        4.8593958414  W2        4379            0.0000000000
     13137      4379  TIP3      H2             -0.1108687078       -2.4887963765        5.2980158414  W2        4379            0.0000000000
     13138      4380  TIP3      OH2            -8.3056987078       -3.1824063765        3.7727758414  W2        4380            0.0000000000
     13139      4380  TIP3      H1             -8.2182387078       -2.3559463765        4.2476858414  W2        4380            0.0000000000
     13140      4380  TIP3      H2             -9.1691887078       -3.5120263765        4.0217058414  W2        4380            0.0000000000
     13141      4381  TIP3      OH2            -7.8911187078        0.5899636235       -6.4211641586  W2        4381            0.0000000000
     13142      4381  TIP3      H1             -7.9665187078        0.4686836235       -7.3676441586  W2        4381            0.0000000000
     13143      4381  TIP3      H2             -7.8582487078        1.5392336235       -6.3027041586  W2        4381            0.0000000000
     13144      4382  TIP3      OH2           -14.2377387078       -0.6213363765       -4.6402641586  W2        4382            0.0000000000
     13145      4382  TIP3      H1            -14.0856987078       -0.9692963765       -3.7616141586  W2        4382            0.0000000000
     13146      4382  TIP3      H2            -15.0886987078       -0.9776063765       -4.8955441586  W2        4382            0.0000000000
     13147      4383  TIP3      OH2            -4.7895187078       -0.2560163765       -9.4189241586  W2        4383            0.0000000000
     13148      4383  TIP3      H1             -4.4146787078       -1.0004063765       -9.8896641586  W2        4383            0.0000000000
     13149      4383  TIP3      H2             -4.7851487078       -0.5259563765       -8.5005941586  W2        4383            0.0000000000
     13150      4384  TIP3      OH2            -5.1207087078       -0.3303063765       -6.6697041586  W2        4384            0.0000000000
     13151      4384  TIP3      H1             -6.0557287078       -0.2301163765       -6.4910041586  W2        4384            0.0000000000
     13152      4384  TIP3      H2             -4.8405187078       -1.0397063765       -6.0913841586  W2        4384            0.0000000000
     13153      4385  TIP3      OH2            -2.1321187078      -11.2630763765        5.3768558414  W2        4385            0.0000000000
     13154      4385  TIP3      H1             -2.5394387078      -10.7825163765        4.6561858414  W2        4385            0.0000000000
     13155      4385  TIP3      H2             -2.0915487078      -12.1684763765        5.0689358414  W2        4385            0.0000000000
     13156      4386  TIP3      OH2           -14.9831687078       -4.8791363765        3.3735258414  W2        4386            0.0000000000
     13157      4386  TIP3      H1            -14.7670387078       -5.2405763765        4.2331058414  W2        4386            0.0000000000
     13158      4386  TIP3      H2            -15.8386987078       -5.2537563765        3.1638758414  W2        4386            0.0000000000
     13159      4387  TIP3      OH2           -12.3643687078      -16.4090863765       -0.6310541586  W2        4387            0.0000000000
     13160      4387  TIP3      H1            -13.2259987078      -16.4962663765       -1.0387641586  W2        4387            0.0000000000
     13161      4387  TIP3      H2            -12.3867987078      -15.5530763765       -0.2032941586  W2        4387            0.0000000000
     13162      4388  TIP3      OH2            -7.7015887078      -16.6870463765        2.7436458414  W2        4388            0.0000000000
     13163      4388  TIP3      H1             -7.2812787078      -17.1023363765        3.4967058414  W2        4388            0.0000000000
     13164      4388  TIP3      H2             -8.6346287078      -16.8657163765        2.8608458414  W2        4388            0.0000000000
     13165      4389  TIP3      OH2            -4.3750987078      -12.9315263765        3.5970958414  W2        4389            0.0000000000
     13166      4389  TIP3      H1             -4.8891487078      -13.0573063765        4.3946958414  W2        4389            0.0000000000
     13167      4389  TIP3      H2             -4.5306287078      -12.0192163765        3.3527158414  W2        4389            0.0000000000
     13168      4390  TIP3      OH2            -3.6126087078       -8.0705263765      -10.6416041586  W2        4390            0.0000000000
     13169      4390  TIP3      H1             -3.5705287078       -8.2931363765      -11.5716041586  W2        4390            0.0000000000
     13170      4390  TIP3      H2             -2.7633987078       -7.6718163765      -10.4516141586  W2        4390            0.0000000000
     13171      4391  TIP3      OH2            -8.0398587078      -14.1947063765       -9.9712741586  W2        4391            0.0000000000
     13172      4391  TIP3      H1             -8.2933787078      -14.1755463765       -9.0484641586  W2        4391            0.0000000000
     13173      4391  TIP3      H2             -8.2966487078      -15.0661663765      -10.2726541586  W2        4391            0.0000000000
     13174      4392  TIP3      OH2           -12.2733587078      -11.4436363765        0.4639658414  W2        4392            0.0000000000
     13175      4392  TIP3      H1            -12.9151487078      -11.4839063765        1.1729758414  W2        4392            0.0000000000
     13176      4392  TIP3      H2            -12.2361587078      -10.5171663765        0.2262658414  W2        4392            0.0000000000
     13177      4393  TIP3      OH2           -12.2764487078      -11.2226263765       -4.6240341586  W2        4393            0.0000000000
     13178      4393  TIP3      H1            -13.1691587078      -11.5630163765       -4.6826541586  W2        4393            0.0000000000
     13179      4393  TIP3      H2            -11.8257887078      -11.5995363765       -5.3797141586  W2        4393            0.0000000000
     13180      4394  TIP3      OH2            -6.7408987078      -10.8065963765       -5.8069541586  W2        4394            0.0000000000
     13181      4394  TIP3      H1             -7.1498687078       -9.9917363765       -6.0984741586  W2        4394            0.0000000000
     13182      4394  TIP3      H2             -6.0202787078      -10.9465863765       -6.4212441586  W2        4394            0.0000000000
     13183      4395  TIP3      OH2            -7.6387387078      -10.6309563765        5.6811158414  W2        4395            0.0000000000
     13184      4395  TIP3      H1             -8.2013587078      -11.3357963765        6.0018958414  W2        4395            0.0000000000
     13185      4395  TIP3      H2             -6.8123987078      -10.7517663765        6.1488758414  W2        4395            0.0000000000
     13186      4396  TIP3      OH2            -5.7361287078      -11.3605563765       -2.9929841586  W2        4396            0.0000000000
     13187      4396  TIP3      H1             -5.9316787078      -10.7548763765       -3.7079241586  W2        4396            0.0000000000
     13188      4396  TIP3      H2             -5.5548687078      -12.1940363765       -3.4273541586  W2        4396            0.0000000000
     13189      4397  TIP3      OH2           -14.5233087078      -11.1232863765        2.3311658414  W2        4397            0.0000000000
     13190      4397  TIP3      H1            -14.5613687078      -10.7231263765        3.1998758414  W2        4397            0.0000000000
     13191      4397  TIP3      H2            -15.0141987078      -11.9400463765        2.4214558414  W2        4397            0.0000000000
     13192      4398  TIP3      OH2           -11.1575687078      -13.7490563765      -10.8702341586  W2        4398            0.0000000000
     13193      4398  TIP3      H1            -11.5884987078      -14.1940463765      -10.1404941586  W2        4398            0.0000000000
     13194      4398  TIP3      H2            -11.8756987078      -13.3774263765      -11.3824841586  W2        4398            0.0000000000
     13195      4399  TIP3      OH2           -17.9152287078      -14.0071063765       -3.8183641586  W2        4399            0.0000000000
     13196      4399  TIP3      H1            -17.2844587078      -14.0358963765       -3.0989741586  W2        4399            0.0000000000
     13197      4399  TIP3      H2            -17.4657987078      -14.4322363765       -4.5487741586  W2        4399            0.0000000000
     13198      4400  TIP3      OH2           -16.6410187078      -13.2609063765       -8.3943241586  W2        4400            0.0000000000
     13199      4400  TIP3      H1            -16.1668487078      -12.6699163765       -8.9792341586  W2        4400            0.0000000000
     13200      4400  TIP3      H2            -17.3583787078      -12.7306163765       -8.0473141586  W2        4400            0.0000000000
     13201      4401  TIP3      OH2            -6.4722087078       -9.7224263765        1.6782558414  W2        4401            0.0000000000
     13202      4401  TIP3      H1             -6.1487287078      -10.3534563765        1.0353058414  W2        4401            0.0000000000
     13203      4401  TIP3      H2             -6.9122787078      -10.2572063765        2.3389958414  W2        4401            0.0000000000
     13204      4402  TIP3      OH2            -9.6949187078      -13.7948763765       -3.5376241586  W2        4402            0.0000000000
     13205      4402  TIP3      H1            -10.6058087078      -13.7381963765       -3.2490241586  W2        4402            0.0000000000
     13206      4402  TIP3      H2             -9.1896287078      -13.8553263765       -2.7269041586  W2        4402            0.0000000000
     13207      4403  TIP3      OH2           -14.8665787078      -12.1662463765       -4.7108641586  W2        4403            0.0000000000
     13208      4403  TIP3      H1            -15.7557787078      -12.0666963765       -5.0509041586  W2        4403            0.0000000000
     13209      4403  TIP3      H2            -14.5700887078      -13.0079463765       -5.0570741586  W2        4403            0.0000000000
     13210      4404  TIP3      OH2           -11.2133987078      -12.1659863765       -7.0544041586  W2        4404            0.0000000000
     13211      4404  TIP3      H1            -10.2818487078      -12.0369863765       -6.8760941586  W2        4404            0.0000000000
     13212      4404  TIP3      H2            -11.4283687078      -11.4965563765       -7.7039341586  W2        4404            0.0000000000
     13213      4405  TIP3      OH2            -5.2897287078      -14.5602463765       -0.2734441586  W2        4405            0.0000000000
     13214      4405  TIP3      H1             -5.9665687078      -14.4289363765        0.3905258414  W2        4405            0.0000000000
     13215      4405  TIP3      H2             -5.7752387078      -14.7152963765       -1.0836741586  W2        4405            0.0000000000
     13216      4406  TIP3      OH2           -12.5393787078      -10.9717663765       -9.4877941586  W2        4406            0.0000000000
     13217      4406  TIP3      H1            -13.0818687078      -11.3513863765      -10.1790341586  W2        4406            0.0000000000
     13218      4406  TIP3      H2            -11.7058887078      -10.7772963765       -9.9163841586  W2        4406            0.0000000000
     13219      4407  TIP3      OH2            -2.0022187078        1.1112936235        6.0033158414  W2        4407            0.0000000000
     13220      4407  TIP3      H1             -1.8023487078        1.5354836235        5.1688458414  W2        4407            0.0000000000
     13221      4407  TIP3      H2             -1.3468487078        1.4551136235        6.6103558414  W2        4407            0.0000000000
     13222      4408  TIP3      OH2           -14.4042387078       -6.4145763765        5.6113658414  W2        4408            0.0000000000
     13223      4408  TIP3      H1            -13.6719987078       -6.1599863765        6.1728158414  W2        4408            0.0000000000
     13224      4408  TIP3      H2            -15.1843687078       -6.2100363765        6.1269058414  W2        4408            0.0000000000
     13225      4409  TIP3      OH2            -8.3749487078      -11.0075763765       -1.6506641586  W2        4409            0.0000000000
     13226      4409  TIP3      H1             -7.8106087078      -11.5539163765       -2.1977041586  W2        4409            0.0000000000
     13227      4409  TIP3      H2             -8.5226087078      -11.5293863765       -0.8619041586  W2        4409            0.0000000000
     13228      4410  TIP3      OH2           -13.3729787078      -14.8709663765       -5.2321841586  W2        4410            0.0000000000
     13229      4410  TIP3      H1            -13.6900287078      -15.7734363765       -5.2676441586  W2        4410            0.0000000000
     13230      4410  TIP3      H2            -12.5915687078      -14.8692263765       -5.7850241586  W2        4410            0.0000000000
     13231      4411  TIP3      OH2            -9.7483587078      -12.6189663765        0.7633758414  W2        4411            0.0000000000
     13232      4411  TIP3      H1            -10.5838287078      -12.1650163765        0.8736158414  W2        4411            0.0000000000
     13233      4411  TIP3      H2             -9.2242987078      -12.3431163765        1.5153658414  W2        4411            0.0000000000
     13234      4412  TIP3      OH2            -9.2040987078       -6.4061963765       -7.5519841586  W2        4412            0.0000000000
     13235      4412  TIP3      H1             -9.9489987078       -6.9136663765       -7.8741941586  W2        4412            0.0000000000
     13236      4412  TIP3      H2             -9.3383787078       -6.3573963765       -6.6055041586  W2        4412            0.0000000000
     13237      4413  TIP3      OH2            -2.0542087078       -7.2733763765        1.2347758414  W2        4413            0.0000000000
     13238      4413  TIP3      H1             -1.4123287078       -6.8167463765        0.6909958414  W2        4413            0.0000000000
     13239      4413  TIP3      H2             -2.8845187078       -7.1601363765        0.7721858414  W2        4413            0.0000000000
     13240      4414  TIP3      OH2            -5.3064187078      -13.5922063765       -9.3527241586  W2        4414            0.0000000000
     13241      4414  TIP3      H1             -6.2449987078      -13.4806463765       -9.5038441586  W2        4414            0.0000000000
     13242      4414  TIP3      H2             -5.0092087078      -12.7355163765       -9.0461541586  W2        4414            0.0000000000
     13243      4415  TIP3      OH2            -7.6848887078       -6.2218663765        3.6849258414  W2        4415            0.0000000000
     13244      4415  TIP3      H1             -8.0302787078       -6.6036263765        4.4918858414  W2        4415            0.0000000000
     13245      4415  TIP3      H2             -7.8848787078       -5.2885063765        3.7562158414  W2        4415            0.0000000000
     13246      4416  TIP3      OH2            -4.5880687078      -11.7249363765       -7.6919841586  W2        4416            0.0000000000
     13247      4416  TIP3      H1             -3.6961687078      -11.8624363765       -7.3728641586  W2        4416            0.0000000000
     13248      4416  TIP3      H2             -4.5317087078      -10.9343263765       -8.2286341586  W2        4416            0.0000000000
     13249      4417  TIP3      OH2           -14.0792687078       -7.1111963765       -1.7821941586  W2        4417            0.0000000000
     13250      4417  TIP3      H1            -13.3345487078       -7.1136263765       -2.3835441586  W2        4417            0.0000000000
     13251      4417  TIP3      H2            -14.0016087078       -7.9348163765       -1.3006841586  W2        4417            0.0000000000
     13252      4418  TIP3      OH2            -7.0786887078       -4.9477663765       -8.5265241586  W2        4418            0.0000000000
     13253      4418  TIP3      H1             -7.3738487078       -4.1209763765       -8.1450441586  W2        4418            0.0000000000
     13254      4418  TIP3      H2             -7.7816887078       -5.5670763765       -8.3303841586  W2        4418            0.0000000000
     13255      4419  TIP3      OH2           -17.0712987078       -8.6505063765        3.5326558414  W2        4419            0.0000000000
     13256      4419  TIP3      H1            -16.8484387078       -9.0685463765        4.3644058414  W2        4419            0.0000000000
     13257      4419  TIP3      H2            -17.6732887078       -9.2630063765        3.1099358414  W2        4419            0.0000000000
     13258      4420  TIP3      OH2           -10.0548087078       -9.1335163765        5.7456258414  W2        4420            0.0000000000
     13259      4420  TIP3      H1            -10.3507287078       -9.2992163765        4.8505358414  W2        4420            0.0000000000
     13260      4420  TIP3      H2             -9.1232887078       -9.3534863765        5.7350158414  W2        4420            0.0000000000
     13261      4421  TIP3      OH2            -5.4345287078       -3.7603163765        3.6354258414  W2        4421            0.0000000000
     13262      4421  TIP3      H1             -6.3350987078       -3.5770563765        3.3678158414  W2        4421            0.0000000000
     13263      4421  TIP3      H2             -5.4004187078       -3.5013863765        4.5563058414  W2        4421            0.0000000000
     13264      4422  TIP3      OH2             0.2968012922      -11.5155263765       -7.9973141586  W2        4422            0.0000000000
     13265      4422  TIP3      H1             -0.2575687078      -11.9117263765       -8.6695641586  W2        4422            0.0000000000
     13266      4422  TIP3      H2              0.3971612922      -10.6050063765       -8.2749841586  W2        4422            0.0000000000
     13267      4423  TIP3      OH2             0.2600012922       -5.7153563765        4.8398358414  W2        4423            0.0000000000
     13268      4423  TIP3      H1             -0.5911487078       -5.4769763765        4.4724758414  W2        4423            0.0000000000
     13269      4423  TIP3      H2              0.8503412922       -5.7320363765        4.0865458414  W2        4423            0.0000000000
     13270      4424  TIP3      OH2            -1.4080287078       -2.7294863765       -7.5321041586  W2        4424            0.0000000000
     13271      4424  TIP3      H1             -1.7809187078       -3.5551063765       -7.2230441586  W2        4424            0.0000000000
     13272      4424  TIP3      H2             -1.1306787078       -2.9125463765       -8.4297641586  W2        4424            0.0000000000
     13273      4425  TIP3      OH2            -4.2476387078       -7.9215363765       -0.5109141586  W2        4425            0.0000000000
     13274      4425  TIP3      H1             -5.1759487078       -8.1533463765       -0.5379841586  W2        4425            0.0000000000
     13275      4425  TIP3      H2             -3.7965287078       -8.6985563765       -0.8410341586  W2        4425            0.0000000000
     13276      4426  TIP3      OH2           -11.7043287078       -3.5933763765       -4.3780441586  W2        4426            0.0000000000
     13277      4426  TIP3      H1            -11.1771087078       -2.8199363765       -4.5781641586  W2        4426            0.0000000000
     13278      4426  TIP3      H2            -12.5844787078       -3.3684563765       -4.6796441586  W2        4426            0.0000000000
     13279      4427  TIP3      OH2           -15.9495587078       -8.7309663765       -9.7908041586  W2        4427            0.0000000000
     13280      4427  TIP3      H1            -15.3335687078       -8.1042463765       -9.4113241586  W2        4427            0.0000000000
     13281      4427  TIP3      H2            -16.8112987078       -8.4149863765       -9.5191541586  W2        4427            0.0000000000
     13282      4428  TIP3      OH2           -10.2770987078       -5.9303863765       -4.8016141586  W2        4428            0.0000000000
     13283      4428  TIP3      H1            -10.5180987078       -5.0049463765       -4.7600841586  W2        4428            0.0000000000
     13284      4428  TIP3      H2            -11.0177387078       -6.3892563765       -4.4052241586  W2        4428            0.0000000000
     13285      4429  TIP3      OH2            -9.7624387078       -1.7810263765        1.5134958414  W2        4429            0.0000000000
     13286      4429  TIP3      H1             -9.3999687078       -0.9264663765        1.2799358414  W2        4429            0.0000000000
     13287      4429  TIP3      H2             -9.2309187078       -2.0728663765        2.2541258414  W2        4429            0.0000000000
     13288      4430  TIP3      OH2           -11.5940187078       -0.9086263765       -5.2563941586  W2        4430            0.0000000000
     13289      4430  TIP3      H1            -12.5439687078       -0.8028863765       -5.2050641586  W2        4430            0.0000000000
     13290      4430  TIP3      H2            -11.2422087078       -0.0878863765       -4.9116441586  W2        4430            0.0000000000
     13291      4431  TIP3      OH2            -6.2183587078       -5.6819563765        1.2140558414  W2        4431            0.0000000000
     13292      4431  TIP3      H1             -6.6442287078       -5.9097863765        2.0404558414  W2        4431            0.0000000000
     13293      4431  TIP3      H2             -5.6377787078       -6.4207763765        1.0315858414  W2        4431            0.0000000000
     13294      4432  TIP3      OH2            -4.0154687078       -4.7529063765       -9.7120441586  W2        4432            0.0000000000
     13295      4432  TIP3      H1             -3.6621587078       -5.1329263765       -8.9076941586  W2        4432            0.0000000000
     13296      4432  TIP3      H2             -4.9641187078       -4.8464263765       -9.6251141586  W2        4432            0.0000000000
     13297      4433  TIP3      OH2            -3.5599387078       -1.1300063765        3.6835358414  W2        4433            0.0000000000
     13298      4433  TIP3      H1             -4.1616187078       -1.6857163765        3.1881658414  W2        4433            0.0000000000
     13299      4433  TIP3      H2             -3.2785687078       -0.4630263765        3.0572758414  W2        4433            0.0000000000
     13300      4434  TIP3      OH2             0.4879712922       -0.2736563765       -9.5110241586  W2        4434            0.0000000000
     13301      4434  TIP3      H1              1.2317612922        0.3123936235       -9.6508641586  W2        4434            0.0000000000
     13302      4434  TIP3      H2             -0.2062187078        0.2949236235       -9.1777841586  W2        4434            0.0000000000
     13303      4435  TIP3      OH2           -15.4373487078      -13.8972363765        3.0907958414  W2        4435            0.0000000000
     13304      4435  TIP3      H1            -16.3301187078      -13.5586963765        3.0231958414  W2        4435            0.0000000000
     13305      4435  TIP3      H2            -15.5360687078      -14.7526263765        3.5088758414  W2        4435            0.0000000000
     13306      4436  TIP3      OH2            -3.1495387078       -6.0807063765       -7.4852541586  W2        4436            0.0000000000
     13307      4436  TIP3      H1             -3.4267787078       -6.8087763765       -6.9291441586  W2        4436            0.0000000000
     13308      4436  TIP3      H2             -2.2222387078       -5.9615063765       -7.2799941586  W2        4436            0.0000000000
     13309      4437  TIP3      OH2           -15.7861487078       -2.0927963765        1.5257358414  W2        4437            0.0000000000
     13310      4437  TIP3      H1            -15.5691187078       -3.0245563765        1.4947058414  W2        4437            0.0000000000
     13311      4437  TIP3      H2            -15.5397987078       -1.8182963765        2.4090158414  W2        4437            0.0000000000
     13312      4438  TIP3      OH2            -9.9246887078       -3.6412963765      -11.2650441586  W2        4438            0.0000000000
     13313      4438  TIP3      H1             -9.6857087078       -4.3894863765      -11.8121541586  W2        4438            0.0000000000
     13314      4438  TIP3      H2            -10.1935587078       -4.0291263765      -10.4322641586  W2        4438            0.0000000000
     13315      4439  TIP3      OH2           -10.9876287078       -4.0709163765       -8.8087841586  W2        4439            0.0000000000
     13316      4439  TIP3      H1            -10.8408287078       -4.5909363765       -8.0186941586  W2        4439            0.0000000000
     13317      4439  TIP3      H2            -10.9904587078       -3.1641563765       -8.5021941586  W2        4439            0.0000000000
     13318      4440  TIP3      OH2           -14.5345187078       -6.8185863765       -8.2982441586  W2        4440            0.0000000000
     13319      4440  TIP3      H1            -15.2205887078       -6.4663363765       -7.7312741586  W2        4440            0.0000000000
     13320      4440  TIP3      H2            -14.0117287078       -6.0556263765       -8.5448141586  W2        4440            0.0000000000
     13321      4441  TIP3      OH2            -6.7030087078      -14.1562063765        1.9806558414  W2        4441            0.0000000000
     13322      4441  TIP3      H1             -6.0042187078      -14.0823363765        2.6306258414  W2        4441            0.0000000000
     13323      4441  TIP3      H2             -7.0838687078      -15.0207063765        2.1349458414  W2        4441            0.0000000000
     13324      4442  TIP3      OH2            -5.9185187078      -14.5040363765       -6.9221141586  W2        4442            0.0000000000
     13325      4442  TIP3      H1             -5.6986887078      -14.0324963765       -7.7255741586  W2        4442            0.0000000000
     13326      4442  TIP3      H2             -5.3601187078      -14.1097763765       -6.2520541586  W2        4442            0.0000000000
     13327      4443  TIP3      OH2            -8.2499087078       -2.3735563765       -8.0593641586  W2        4443            0.0000000000
     13328      4443  TIP3      H1             -9.0662987078       -1.8765863765       -8.0069341586  W2        4443            0.0000000000
     13329      4443  TIP3      H2             -7.7202787078       -1.8982063765       -8.6994841586  W2        4443            0.0000000000
     13330      4444  TIP3      OH2            -8.7185287078      -12.7761563765       -6.0872741586  W2        4444            0.0000000000
     13331      4444  TIP3      H1             -7.9062687078      -12.2718363765       -6.0411041586  W2        4444            0.0000000000
     13332      4444  TIP3      H2             -8.9632287078      -12.9211863765       -5.1733141586  W2        4444            0.0000000000
     13333      4445  TIP3      OH2            -8.1828887078      -11.7898863765        3.0973858414  W2        4445            0.0000000000
     13334      4445  TIP3      H1             -8.0638587078      -11.2163463765        3.8544258414  W2        4445            0.0000000000
     13335      4445  TIP3      H2             -7.5274287078      -12.4779463765        3.2121658414  W2        4445            0.0000000000
     13336      4446  TIP3      OH2            -7.8348587078      -15.6948563765       -5.1491641586  W2        4446            0.0000000000
     13337      4446  TIP3      H1             -8.1815087078      -15.0777963765       -4.5047341586  W2        4446            0.0000000000
     13338      4446  TIP3      H2             -7.1761687078      -15.1942863765       -5.6306141586  W2        4446            0.0000000000
     13339      4447  TIP3      OH2           -10.9115987078       -1.3298363765       -8.0776741586  W2        4447            0.0000000000
     13340      4447  TIP3      H1            -10.7507287078       -0.5300863765       -8.5784141586  W2        4447            0.0000000000
     13341      4447  TIP3      H2            -11.1088187078       -1.0232363765       -7.1926141586  W2        4447            0.0000000000
     13342      4448  TIP3      OH2           -12.1771587078      -14.6319163765       -8.4619141586  W2        4448            0.0000000000
     13343      4448  TIP3      H1            -12.2606787078      -13.7436063765       -8.1152741586  W2        4448            0.0000000000
     13344      4448  TIP3      H2            -11.2871287078      -14.8972463765       -8.2302341586  W2        4448            0.0000000000
     13345      4449  TIP3      OH2            -1.9783087078      -13.8828563765        3.9323558414  W2        4449            0.0000000000
     13346      4449  TIP3      H1             -2.8947287078      -13.6206863765        3.8447258414  W2        4449            0.0000000000
     13347      4449  TIP3      H2             -1.6428087078      -13.8859563765        3.0358858414  W2        4449            0.0000000000
     13348      4450  TIP3      OH2            -3.3762087078      -10.1327563765       -1.9719141586  W2        4450            0.0000000000
     13349      4450  TIP3      H1             -4.1737687078      -10.5477363765       -2.3004141586  W2        4450            0.0000000000
     13350      4450  TIP3      H2             -2.9310987078      -10.8233863765       -1.4808641586  W2        4450            0.0000000000
     13351      4451  TIP3      OH2           -13.9186287078       -4.2046963765       -9.4014641586  W2        4451            0.0000000000
     13352      4451  TIP3      H1            -13.3264787078       -3.5052163765       -9.1252241586  W2        4451            0.0000000000
     13353      4451  TIP3      H2            -13.4593287078       -4.6377463765      -10.1210041586  W2        4451            0.0000000000
     13354      4452  TIP3      OH2           -15.6027087078      -11.5403963765      -10.2855241586  W2        4452            0.0000000000
     13355      4452  TIP3      H1            -15.6474487078      -10.6010863765      -10.1068241586  W2        4452            0.0000000000
     13356      4452  TIP3      H2            -16.4903887078      -11.7759063765      -10.5553141586  W2        4452            0.0000000000
     13357      4453  TIP3      OH2            -2.2897487078       -0.8765063765       -0.3495641586  W2        4453            0.0000000000
     13358      4453  TIP3      H1             -2.4453187078       -0.1980663765       -1.0066341586  W2        4453            0.0000000000
     13359      4453  TIP3      H2             -1.3571087078       -0.8045763765       -0.1465041586  W2        4453            0.0000000000
     13360      4454  TIP3      OH2           -14.7945087078      -16.7587363765       -1.6124241586  W2        4454            0.0000000000
     13361      4454  TIP3      H1            -15.0235287078      -16.6994863765       -2.5399241586  W2        4454            0.0000000000
     13362      4454  TIP3      H2            -15.2371687078      -17.5501863765       -1.3060141586  W2        4454            0.0000000000
     13363      4455  TIP3      OH2           -15.8641787078       -2.8180263765       -5.4518441586  W2        4455            0.0000000000
     13364      4455  TIP3      H1            -16.6963187078       -2.3457563765       -5.4247041586  W2        4455            0.0000000000
     13365      4455  TIP3      H2            -15.3183487078       -2.3082663765       -6.0505341586  W2        4455            0.0000000000
     13366      4456  TIP3      OH2           -16.5758087078       -0.2056563765        5.8779558414  W2        4456            0.0000000000
     13367      4456  TIP3      H1            -16.0355887078       -0.4222563765        6.6378758414  W2        4456            0.0000000000
     13368      4456  TIP3      H2            -17.0570087078       -1.0110563765        5.6882058414  W2        4456            0.0000000000
     13369      4457  TIP3      OH2           -11.9784687078       -1.2862163765        7.4983758414  W2        4457            0.0000000000
     13370      4457  TIP3      H1            -11.2107487078       -1.7451363765        7.8392958414  W2        4457            0.0000000000
     13371      4457  TIP3      H2            -11.9998487078       -1.5122363765        6.5684958414  W2        4457            0.0000000000
     13372      4458  TIP3      OH2            -7.8865087078       -1.7781563765      -11.1264441586  W2        4458            0.0000000000
     13373      4458  TIP3      H1             -8.5304087078       -2.4092963765      -10.8050741586  W2        4458            0.0000000000
     13374      4458  TIP3      H2             -7.1246787078       -2.3093563765      -11.3580941586  W2        4458            0.0000000000
     13375      4459  TIP3      OH2            -5.4015987078       -2.9061063765        6.2275258414  W2        4459            0.0000000000
     13376      4459  TIP3      H1             -5.7526487078       -3.7628063765        6.4705658414  W2        4459            0.0000000000
     13377      4459  TIP3      H2             -4.6752787078       -2.7634363765        6.8344258414  W2        4459            0.0000000000
     13378      4460  TIP3      OH2            -3.2822187078       -1.9611663765      -10.8926441586  W2        4460            0.0000000000
     13379      4460  TIP3      H1             -2.9991787078       -2.7556463765      -10.4399541586  W2        4460            0.0000000000
     13380      4460  TIP3      H2             -2.5424287078       -1.7280663765      -11.4535341586  W2        4460            0.0000000000
     13381      4461  TIP3      OH2           -16.6688587078       -6.3952463765        6.8323858414  W2        4461            0.0000000000
     13382      4461  TIP3      H1            -16.5248087078       -7.2971763765        6.5460558414  W2        4461            0.0000000000
     13383      4461  TIP3      H2            -17.4411187078       -6.1090363765        6.3446158414  W2        4461            0.0000000000
     13384      4462  TIP3      OH2           -12.3274887078       -6.0516763765      -11.0351541586  W2        4462            0.0000000000
     13385      4462  TIP3      H1            -12.2630787078       -6.8457163765      -10.5045141586  W2        4462            0.0000000000
     13386      4462  TIP3      H2            -11.6745687078       -6.1703963765      -11.7249541586  W2        4462            0.0000000000
     13387      4463  TIP3      OH2           -10.0132487078       -6.4254363765        6.2650258414  W2        4463            0.0000000000
     13388      4463  TIP3      H1            -10.3418687078       -6.1546263765        5.4077658414  W2        4463            0.0000000000
     13389      4463  TIP3      H2             -9.8614287078       -7.3664563765        6.1775258414  W2        4463            0.0000000000
     13390      4464  TIP3      OH2            -6.9751487078       -5.0045063765      -11.2993541586  W2        4464            0.0000000000
     13391      4464  TIP3      H1             -7.2437387078       -4.8242963765      -10.3984641586  W2        4464            0.0000000000
     13392      4464  TIP3      H2             -7.1815887078       -5.9298863765      -11.4307741586  W2        4464            0.0000000000
     13393      4465  TIP3      OH2            -4.2787287078       -6.5097063765        3.6482558414  W2        4465            0.0000000000
     13394      4465  TIP3      H1             -3.5332487078       -5.9213363765        3.5286558414  W2        4465            0.0000000000
     13395      4465  TIP3      H2             -5.0360487078       -5.9277363765        3.7115658414  W2        4465            0.0000000000
     13396      4466  TIP3      OH2           -15.8362087078       -9.1949163765        6.2523158414  W2        4466            0.0000000000
     13397      4466  TIP3      H1            -15.4280887078      -10.0522563765        6.1313758414  W2        4466            0.0000000000
     13398      4466  TIP3      H2            -16.0964487078       -9.1807863765        7.1733458414  W2        4466            0.0000000000
     13399      4467  TIP3      OH2           -11.1781087078       -8.0790563765       -8.7293541586  W2        4467            0.0000000000
     13400      4467  TIP3      H1            -11.6379087078       -8.5632263765       -8.0435041586  W2        4467            0.0000000000
     13401      4467  TIP3      H2            -10.9232387078       -8.7475163765       -9.3653041586  W2        4467            0.0000000000
     13402      4468  TIP3      OH2           -11.8891787078      -10.1863463765        3.6266058414  W2        4468            0.0000000000
     13403      4468  TIP3      H1            -12.5075687078       -9.5116863765        3.9070758414  W2        4468            0.0000000000
     13404      4468  TIP3      H2            -11.5450587078       -9.8649563765        2.7932258414  W2        4468            0.0000000000
     13405      4469  TIP3      OH2           -10.1070687078       -9.8358763765      -10.4670341586  W2        4469            0.0000000000
     13406      4469  TIP3      H1            -10.2875687078       -9.9907563765      -11.3942041586  W2        4469            0.0000000000
     13407      4469  TIP3      H2             -9.1570187078       -9.7280063765      -10.4222441586  W2        4469            0.0000000000
     13408      4470  TIP3      OH2            -6.8693587078       -7.7148163765        6.9040858414  W2        4470            0.0000000000
     13409      4470  TIP3      H1             -5.9162387078       -7.6309063765        6.8766858414  W2        4470            0.0000000000
     13410      4470  TIP3      H2             -7.0298987078       -8.4266363765        7.5235758414  W2        4470            0.0000000000
     13411      4471  TIP3      OH2            -0.7172387078       -7.4814563765      -11.0212241586  W2        4471            0.0000000000
     13412      4471  TIP3      H1             -0.9907587078       -7.9059063765      -11.8343941586  W2        4471            0.0000000000
     13413      4471  TIP3      H2             -0.6778287078       -6.5500063765      -11.2381841586  W2        4471            0.0000000000
     13414      4472  TIP3      OH2           -11.5498087078      -12.8312663765        4.7089158414  W2        4472            0.0000000000
     13415      4472  TIP3      H1            -11.3997187078      -13.5601363765        4.1068858414  W2        4472            0.0000000000
     13416      4472  TIP3      H2            -11.5475687078      -12.0540963765        4.1501358414  W2        4472            0.0000000000
     13417      4473  TIP3      OH2           -11.1372387078      -14.4616863765        2.2016558414  W2        4473            0.0000000000
     13418      4473  TIP3      H1            -10.6014887078      -14.0100163765        1.5495858414  W2        4473            0.0000000000
     13419      4473  TIP3      H2            -11.9892787078      -14.5697063765        1.7790658414  W2        4473            0.0000000000
     13420      4474  TIP3      OH2            -9.5553987078       -9.0220663765        2.4411758414  W2        4474            0.0000000000
     13421      4474  TIP3      H1             -8.8049187078       -9.1783163765        1.8679558414  W2        4474            0.0000000000
     13422      4474  TIP3      H2             -9.8945687078       -8.1704063765        2.1657258414  W2        4474            0.0000000000
     13423      4475  TIP3      OH2            -5.1397787078      -11.2068863765        7.4697058414  W2        4475            0.0000000000
     13424      4475  TIP3      H1             -4.9476487078      -12.1379463765        7.3581558414  W2        4475            0.0000000000
     13425      4475  TIP3      H2             -4.2821487078      -10.7819363765        7.4592458414  W2        4475            0.0000000000
     13426      4476  TIP3      OH2            -3.8230587078       -8.4183663765        5.5469758414  W2        4476            0.0000000000
     13427      4476  TIP3      H1             -4.1045587078       -7.7089063765        4.9693558414  W2        4476            0.0000000000
     13428      4476  TIP3      H2             -2.8806287078       -8.4910663765        5.3960958414  W2        4476            0.0000000000
     13429      4477  TIP3      OH2           -13.0711787078      -11.6329163765        6.6204758414  W2        4477            0.0000000000
     13430      4477  TIP3      H1            -13.8382787078      -12.1654363765        6.4102358414  W2        4477            0.0000000000
     13431      4477  TIP3      H2            -12.3922787078      -11.9428763765        6.0211058414  W2        4477            0.0000000000
     13432      4478  TIP3      OH2           -10.3316887078      -17.0051163765        2.6330158414  W2        4478            0.0000000000
     13433      4478  TIP3      H1            -10.4297287078      -16.0587963765        2.5276358414  W2        4478            0.0000000000
     13434      4478  TIP3      H2            -11.0740687078      -17.3777363765        2.1573658414  W2        4478            0.0000000000
     13435      4479  TIP3      OH2            -9.0676387078      -12.6835763765        6.1968558414  W2        4479            0.0000000000
     13436      4479  TIP3      H1             -9.3030987078      -12.9029063765        7.0983458414  W2        4479            0.0000000000
     13437      4479  TIP3      H2             -9.8509487078      -12.8904563765        5.6871058414  W2        4479            0.0000000000
     13438      4480  TIP3      OH2            -6.3519787078      -13.5562263765        5.2722058414  W2        4480            0.0000000000
     13439      4480  TIP3      H1             -7.2994387078      -13.5242563765        5.4045358414  W2        4480            0.0000000000
     13440      4480  TIP3      H2             -6.0393087078      -14.1815163765        5.9260258414  W2        4480            0.0000000000
     13441      4481  TIP3      OH2            -4.7178287078      -14.9221163765        7.2773958414  W2        4481            0.0000000000
     13442      4481  TIP3      H1             -4.8146487078      -15.8743863765        7.2715858414  W2        4481            0.0000000000
     13443      4481  TIP3      H2             -5.0395187078      -14.6534363765        8.1379458414  W2        4481            0.0000000000
     13444      4482  TIP3      OH2           -14.8908987078      -13.7125363765        6.3249458414  W2        4482            0.0000000000
     13445      4482  TIP3      H1            -14.6791587078      -14.4189263765        5.7146958414  W2        4482            0.0000000000
     13446      4482  TIP3      H2            -15.0021487078      -14.1499363765        7.1690658414  W2        4482            0.0000000000
     13447      4483  TIP3      OH2           -10.1098787078      -17.7113763765        5.3042958414  W2        4483            0.0000000000
     13448      4483  TIP3      H1             -9.3980387078      -18.3511563765        5.2902058414  W2        4483            0.0000000000
     13449      4483  TIP3      H2            -10.2108387078      -17.4445463765        4.3906058414  W2        4483            0.0000000000
     13450      4484  TIP3      OH2            -9.7561287078      -16.0285363765        7.3579258414  W2        4484            0.0000000000
     13451      4484  TIP3      H1             -9.8879087078      -16.5041563765        6.5377758414  W2        4484            0.0000000000
     13452      4484  TIP3      H2            -10.3553887078      -15.2841763765        7.3026358414  W2        4484            0.0000000000
     13453      4485  TIP3      OH2           -10.2098987078        0.8544936235       -9.4656741586  W2        4485            0.0000000000
     13454      4485  TIP3      H1             -9.2768287078        1.0123636235       -9.3218341586  W2        4485            0.0000000000
     13455      4485  TIP3      H2            -10.4740187078        1.5297936235      -10.0905241586  W2        4485            0.0000000000
     13456      4486  TIP3      OH2           -16.6414087078       -4.5091263765       -9.9828641586  W2        4486            0.0000000000
     13457      4486  TIP3      H1            -15.7274887078       -4.4302363765       -9.7094741586  W2        4486            0.0000000000
     13458      4486  TIP3      H2            -16.6340987078       -5.1961663765      -10.6493041586  W2        4486            0.0000000000
     13459      4487  TIP3      OH2           -17.9923487078        0.8837236235       -4.9054741586  W2        4487            0.0000000000
     13460      4487  TIP3      H1            -18.6396387078        0.4218936235       -5.4383541586  W2        4487            0.0000000000
     13461      4487  TIP3      H2            -17.6378887078        0.2120536235       -4.3228541586  W2        4487            0.0000000000
     13462      4488  TIP3      OH2           -17.1224287078       -1.0355763765       -3.1008541586  W2        4488            0.0000000000
     13463      4488  TIP3      H1            -17.4567487078       -1.9158463765       -2.9288341586  W2        4488            0.0000000000
     13464      4488  TIP3      H2            -16.9001887078       -0.6900763765       -2.2362941586  W2        4488            0.0000000000
     13465      4489  TIP3      OH2             0.4260512922       -0.2259363765       -0.1203741586  W2        4489            0.0000000000
     13466      4489  TIP3      H1              0.4047212922       -0.0410963765        0.8185658414  W2        4489            0.0000000000
     13467      4489  TIP3      H2              1.1166712922        0.3424636235       -0.4612341586  W2        4489            0.0000000000
     13468      4490  TIP3      OH2            -0.0106587078       -0.6588263765        2.8015358414  W2        4490            0.0000000000
     13469      4490  TIP3      H1             -0.4977887078       -1.3944163765        2.4302758414  W2        4490            0.0000000000
     13470      4490  TIP3      H2              0.5386112922       -1.0524363765        3.4794758414  W2        4490            0.0000000000
     13471      4491  TIP3      OH2            -1.5599287078       -4.8690163765        7.4395658414  W2        4491            0.0000000000
     13472      4491  TIP3      H1             -2.4258187078       -4.9740463765        7.8337958414  W2        4491            0.0000000000
     13473      4491  TIP3      H2             -1.1833387078       -4.1106863765        7.8860358414  W2        4491            0.0000000000
     13474      4492  TIP3      OH2            -0.2589587078       -6.6126463765       -7.0461841586  W2        4492            0.0000000000
     13475      4492  TIP3      H1              0.5911812922       -6.1915563765       -6.9190241586  W2        4492            0.0000000000
     13476      4492  TIP3      H2             -0.2534487078       -7.3526363765       -6.4390441586  W2        4492            0.0000000000
     13477      4493  TIP3      OH2             0.1356012922       -8.5589063765       -5.2226141586  W2        4493            0.0000000000
     13478      4493  TIP3      H1             -0.5909387078       -9.0386463765       -4.8248541586  W2        4493            0.0000000000
     13479      4493  TIP3      H2              0.7169312922       -8.3534363765       -4.4904541586  W2        4493            0.0000000000
     13480      4494  TIP3      OH2            -0.1052787078       -5.7741563765       -0.2748541586  W2        4494            0.0000000000
     13481      4494  TIP3      H1              0.7281412922       -6.1521563765       -0.5554941586  W2        4494            0.0000000000
     13482      4494  TIP3      H2              0.0067512922       -4.8310363765       -0.3939441586  W2        4494            0.0000000000
     13483      4495  TIP3      OH2            -1.6190487078       -2.8964063765        2.0319858414  W2        4495            0.0000000000
     13484      4495  TIP3      H1             -2.2665187078       -2.5712563765        2.6575058414  W2        4495            0.0000000000
     13485      4495  TIP3      H2             -2.1366487078       -3.3366363765        1.3578158414  W2        4495            0.0000000000
     13486      4496  TIP3      OH2             0.4039112922       -8.6580563765       -8.8314841586  W2        4496            0.0000000000
     13487      4496  TIP3      H1             -0.1179787078       -8.3016463765       -9.5503941586  W2        4496            0.0000000000
     13488      4496  TIP3      H2              0.3708312922       -7.9832763765       -8.1533941586  W2        4496            0.0000000000
     13489      4497  TIP3      OH2            -1.2471887078      -11.4184963765      -10.2807741586  W2        4497            0.0000000000
     13490      4497  TIP3      H1             -1.1507487078      -10.7517963765      -10.9608041586  W2        4497            0.0000000000
     13491      4497  TIP3      H2             -1.3872287078      -12.2338663765      -10.7622241586  W2        4497            0.0000000000
     13492      4498  TIP3      OH2            -2.0777187078      -10.0382563765       -4.6597441586  W2        4498            0.0000000000
     13493      4498  TIP3      H1             -2.2278387078      -10.9833963765       -4.6799641586  W2        4498            0.0000000000
     13494      4498  TIP3      H2             -2.4312687078       -9.7571163765       -3.8158341586  W2        4498            0.0000000000
     13495      4499  TIP3      OH2           -17.0424787078       -7.9600363765       -0.6493641586  W2        4499            0.0000000000
     13496      4499  TIP3      H1            -16.8581887078       -8.0418663765       -1.5850741586  W2        4499            0.0000000000
     13497      4499  TIP3      H2            -16.1931887078       -8.0843363765       -0.2257241586  W2        4499            0.0000000000
     13498      4500  TIP3      OH2            -1.2214287078       -8.0679263765        4.9790858414  W2        4500            0.0000000000
     13499      4500  TIP3      H1             -0.6386987078       -8.8026963765        5.1708058414  W2        4500            0.0000000000
     13500      4500  TIP3      H2             -0.6574987078       -7.2958963765        5.0256658414  W2        4500            0.0000000000
     13501      4501  TIP3      OH2             0.2752812922      -10.1653463765        5.6636258414  W2        4501            0.0000000000
     13502      4501  TIP3      H1             -0.5880487078      -10.5441363765        5.4980958414  W2        4501            0.0000000000
     13503      4501  TIP3      H2              0.8796512922      -10.9038663765        5.5892058414  W2        4501            0.0000000000
     13504      4502  TIP3      OH2            -1.9998087078      -14.0105163765      -11.1632241586  W2        4502            0.0000000000
     13505      4502  TIP3      H1             -1.3892287078      -14.3818363765      -10.5264041586  W2        4502            0.0000000000
     13506      4502  TIP3      H2             -2.8366587078      -14.4318263765      -10.9672241586  W2        4502            0.0000000000
     13507      4503  TIP3      OH2            -2.3672387078      -12.4556763765       -6.1972341586  W2        4503            0.0000000000
     13508      4503  TIP3      H1             -2.0875287078      -13.3626363765       -6.0730641586  W2        4503            0.0000000000
     13509      4503  TIP3      H2             -1.6080687078      -12.0215263765       -6.5863141586  W2        4503            0.0000000000
     13510      4504  TIP3      OH2            -1.7554087078      -11.8739363765       -0.7613441586  W2        4504            0.0000000000
     13511      4504  TIP3      H1             -0.8226087078      -11.6619463765       -0.7957441586  W2        4504            0.0000000000
     13512      4504  TIP3      H2             -1.9906587078      -11.7727263765        0.1609558414  W2        4504            0.0000000000
     13513      4505  TIP3      OH2            -1.7262187078      -11.1374063765        2.0145958414  W2        4505            0.0000000000
     13514      4505  TIP3      H1             -2.5690887078      -10.8693663765        2.3805758414  W2        4505            0.0000000000
     13515      4505  TIP3      H2             -1.2837887078      -10.3152163765        1.8037058414  W2        4505            0.0000000000
     13516      4506  TIP3      OH2           -17.4449987078      -12.6895363765        5.4915158414  W2        4506            0.0000000000
     13517      4506  TIP3      H1            -16.5255087078      -12.8117063765        5.7278258414  W2        4506            0.0000000000
     13518      4506  TIP3      H2            -17.8945487078      -13.4395663765        5.8808658414  W2        4506            0.0000000000
     13519      4507  TIP3      OH2             0.5569412922      -17.1573863765        7.3680958414  W2        4507            0.0000000000
     13520      4507  TIP3      H1              0.9066412922      -17.8110363765        6.7625658414  W2        4507            0.0000000000
     13521      4507  TIP3      H2              0.7038912922      -16.3199763765        6.9283558414  W2        4507            0.0000000000
     13522      4508  TIP3      OH2            -1.7537587078      -15.1927463765       -6.1490341586  W2        4508            0.0000000000
     13523      4508  TIP3      H1             -1.5712587078      -15.6415963765       -5.3235341586  W2        4508            0.0000000000
     13524      4508  TIP3      H2             -2.3534687078      -15.7773063765       -6.6125741586  W2        4508            0.0000000000
     13525      4509  TIP3      OH2           -16.2237487078      -14.3773763765       -1.6171941586  W2        4509            0.0000000000
     13526      4509  TIP3      H1            -15.7785887078      -15.1691263765       -1.3152241586  W2        4509            0.0000000000
     13527      4509  TIP3      H2            -15.7574487078      -13.6608563765       -1.1866341586  W2        4509            0.0000000000
     13528      4510  TIP3      OH2           -17.9197187078      -11.3780763765       -0.5481741586  W2        4510            0.0000000000
     13529      4510  TIP3      H1            -17.4277387078      -11.5990263765       -1.3389741586  W2        4510            0.0000000000
     13530      4510  TIP3      H2            -17.5576287078      -10.5377363765       -0.2672241586  W2        4510            0.0000000000
     13531      4511  TIP3      OH2             0.0766612922      -15.0479263765        5.7172258414  W2        4511            0.0000000000
     13532      4511  TIP3      H1             -0.8407687078      -14.7772163765        5.6815758414  W2        4511            0.0000000000
     13533      4511  TIP3      H2              0.1996012922      -15.5830863765        4.9331958414  W2        4511            0.0000000000
     13534      4512  TIP3      OH2             0.1128612922      -15.1249363765       -9.6210041586  W2        4512            0.0000000000
     13535      4512  TIP3      H1              0.5251212922      -15.8463663765      -10.0962041586  W2        4512            0.0000000000
     13536      4512  TIP3      H2              0.7945112922      -14.4554763765       -9.5625741586  W2        4512            0.0000000000
     13537      4513  TIP3      OH2           -17.6060687078      -15.1201663765       -6.4939341586  W2        4513            0.0000000000
     13538      4513  TIP3      H1            -18.5312287078      -14.9115063765       -6.6233841586  W2        4513            0.0000000000
     13539      4513  TIP3      H2            -17.1520787078      -14.6360863765       -7.1837041586  W2        4513            0.0000000000
     13540      4514  TIP3      OH2            -2.8353487078       -0.1359963765       -4.5481941586  W2        4514            0.0000000000
     13541      4514  TIP3      H1             -2.1830587078       -0.4837863765       -5.1562841586  W2        4514            0.0000000000
     13542      4514  TIP3      H2             -2.3249687078        0.3523236235       -3.9022241586  W2        4514            0.0000000000
     13543      4515  TIP3      OH2           -17.6425287078      -16.3822663765        1.8503158414  W2        4515            0.0000000000
     13544      4515  TIP3      H1            -18.3074787078      -16.6282363765        2.4934058414  W2        4515            0.0000000000
     13545      4515  TIP3      H2            -18.0853987078      -15.7602263765        1.2731158414  W2        4515            0.0000000000
     13546      4516  TIP3      OH2           -15.4505987078       -3.2068563765        5.9948958414  W2        4516            0.0000000000
     13547      4516  TIP3      H1            -16.2713487078       -3.0322063765        5.5343658414  W2        4516            0.0000000000
     13548      4516  TIP3      H2            -15.7028187078       -3.2803863765        6.9153358414  W2        4516            0.0000000000
     13549      4517  TIP3      OH2           -12.4963087078       -2.2327363765        2.2532958414  W2        4517            0.0000000000
     13550      4517  TIP3      H1            -12.9211987078       -1.4228863765        1.9707558414  W2        4517            0.0000000000
     13551      4517  TIP3      H2            -11.5920287078       -2.1473263765        1.9512758414  W2        4517            0.0000000000
     13552      4518  TIP3      OH2            -8.1851687078       -0.8337363765        5.2126658414  W2        4518            0.0000000000
     13553      4518  TIP3      H1             -8.0004187078       -1.1671263765        6.0906958414  W2        4518            0.0000000000
     13554      4518  TIP3      H2             -7.3387187078       -0.5238763765        4.8905858414  W2        4518            0.0000000000
     13555      4519  TIP3      OH2            -5.8401287078        0.4521536235        4.4568058414  W2        4519            0.0000000000
     13556      4519  TIP3      H1             -5.1632387078       -0.1806163765        4.2167258414  W2        4519            0.0000000000
     13557      4519  TIP3      H2             -5.5182487078        0.8532036235        5.2641358414  W2        4519            0.0000000000
     13558      4520  TIP3      OH2            -0.9227487078      -16.9582963765        3.5363058414  W2        4520            0.0000000000
     13559      4520  TIP3      H1             -1.7353987078      -16.6332663765        3.1487758414  W2        4520            0.0000000000
     13560      4520  TIP3      H2             -0.6898987078      -17.7184463765        3.0032158414  W2        4520            0.0000000000
     13561      4521  TIP3      OH2           -15.0946387078        1.0236536235        2.3008258414  W2        4521            0.0000000000
     13562      4521  TIP3      H1            -15.8149987078        1.4637536235        1.8495958414  W2        4521            0.0000000000
     13563      4521  TIP3      H2            -15.4602387078        0.7731236235        3.1492258414  W2        4521            0.0000000000
     13564      4522  TIP3      OH2           -12.6273787078        0.6240436235        1.3305458414  W2        4522            0.0000000000
     13565      4522  TIP3      H1            -13.4921587078        0.6958936235        1.7345558414  W2        4522            0.0000000000
     13566      4522  TIP3      H2            -12.6824787078        1.1707736235        0.5467958414  W2        4522            0.0000000000
     13567      4523  TIP3      OH2            -7.9168187078        0.5119336235        0.5061458414  W2        4523            0.0000000000
     13568      4523  TIP3      H1             -8.3734187078        1.0409036235       -0.1480141586  W2        4523            0.0000000000
     13569      4523  TIP3      H2             -7.7540187078        1.1150736235        1.2313758414  W2        4523            0.0000000000
     13570      4524  TIP3      OH2            -5.5891887078       -0.6101063765        1.4511758414  W2        4524            0.0000000000
     13571      4524  TIP3      H1             -6.4938187078       -0.4450863765        1.1853858414  W2        4524            0.0000000000
     13572      4524  TIP3      H2             -5.1603287078        0.2431136235        1.3855158414  W2        4524            0.0000000000
     13573      4525  TIP3      OH2            -2.9849987078        0.9598036235        1.7459558414  W2        4525            0.0000000000
     13574      4525  TIP3      H1             -3.1667987078        1.8756936235        1.5354458414  W2        4525            0.0000000000
     13575      4525  TIP3      H2             -2.8082187078        0.5495136235        0.8994158414  W2        4525            0.0000000000
     13576      4526  TIP3      OH2           -15.6798287078       -0.3530963765       -0.7889941586  W2        4526            0.0000000000
     13577      4526  TIP3      H1            -15.6982287078       -0.7785863765        0.0682358414  W2        4526            0.0000000000
     13578      4526  TIP3      H2            -14.8750387078       -0.6715963765       -1.1977741586  W2        4526            0.0000000000
     13579      4527  TIP3      OH2           -13.5385187078       -1.6432263765       -2.1340041586  W2        4527            0.0000000000
     13580      4527  TIP3      H1            -13.7574487078       -2.5594863765       -1.9644041586  W2        4527            0.0000000000
     13581      4527  TIP3      H2            -12.7142987078       -1.5031863765       -1.6678641586  W2        4527            0.0000000000
     13582      4528  TIP3      OH2           -11.0012687078       -1.1732963765       -1.2852041586  W2        4528            0.0000000000
     13583      4528  TIP3      H1            -10.7886987078       -2.0613963765       -1.5721141586  W2        4528            0.0000000000
     13584      4528  TIP3      H2            -10.9367587078       -1.2075263765       -0.3308041586  W2        4528            0.0000000000
     13585      4529  TIP3      OH2            -7.4928987078      -15.5092363765       -2.1408741586  W2        4529            0.0000000000
     13586      4529  TIP3      H1             -8.1672187078      -16.1386763765       -1.8852941586  W2        4529            0.0000000000
     13587      4529  TIP3      H2             -6.9289787078      -15.9933463765       -2.7440841586  W2        4529            0.0000000000
     13588      4530  TIP3      OH2            -2.3501787078      -17.4018363765       -2.0281641586  W2        4530            0.0000000000
     13589      4530  TIP3      H1             -1.7464187078      -16.8542963765       -2.5300641586  W2        4530            0.0000000000
     13590      4530  TIP3      H2             -3.2199787078      -17.0827963765       -2.2687541586  W2        4530            0.0000000000
     13591      4531  TIP3      OH2            -0.6231387078      -16.2629663765       -3.6950741586  W2        4531            0.0000000000
     13592      4531  TIP3      H1             -0.0113887078      -16.7773963765       -4.2217141586  W2        4531            0.0000000000
     13593      4531  TIP3      H2             -0.2407987078      -15.3857563765       -3.6716341586  W2        4531            0.0000000000
     13594      4532  TIP3      OH2           -15.1661487078      -16.8752063765       -4.3188841586  W2        4532            0.0000000000
     13595      4532  TIP3      H1            -15.9431687078      -17.1097163765       -4.8262941586  W2        4532            0.0000000000
     13596      4532  TIP3      H2            -14.6357887078      -17.6719963765       -4.3100841586  W2        4532            0.0000000000
     13597      4533  TIP3      OH2           -16.3298087078      -17.0773963765       -8.5152741586  W2        4533            0.0000000000
     13598      4533  TIP3      H1            -15.8907387078      -16.4663463765       -9.1069241586  W2        4533            0.0000000000
     13599      4533  TIP3      H2            -16.9635687078      -16.5389863765       -8.0412741586  W2        4533            0.0000000000
     13600      4534  TIP3      OH2           -10.5868887078      -16.9484963765       -4.5055741586  W2        4534            0.0000000000
     13601      4534  TIP3      H1             -9.7125487078      -16.5600663765       -4.5351441586  W2        4534            0.0000000000
     13602      4534  TIP3      H2            -10.7228087078      -17.1637163765       -3.5828541586  W2        4534            0.0000000000
     13603      4535  TIP3      OH2            -5.0300487078      -16.9185163765       -2.8564041586  W2        4535            0.0000000000
     13604      4535  TIP3      H1             -4.9538887078      -16.8233563765       -3.8058041586  W2        4535            0.0000000000
     13605      4535  TIP3      H2             -5.3051287078      -17.8262263765       -2.7274941586  W2        4535            0.0000000000
     13606      4536  TIP3      OH2            -3.6767887078      -16.8927363765       -7.1639041586  W2        4536            0.0000000000
     13607      4536  TIP3      H1             -4.3796787078      -16.2778163765       -7.3737641586  W2        4536            0.0000000000
     13608      4536  TIP3      H2             -4.1216487078      -17.7300663765       -7.0328141586  W2        4536            0.0000000000
     13609      4537  TIP3      OH2           -16.4288587078       -1.1291763765       -7.6177641586  W2        4537            0.0000000000
     13610      4537  TIP3      H1            -17.1138687078       -1.1672863765       -8.2852541586  W2        4537            0.0000000000
     13611      4537  TIP3      H2            -16.4251387078       -0.2164163765       -7.3295541586  W2        4537            0.0000000000
     13612      4538  TIP3      OH2           -14.4688987078      -15.1612463765      -10.0728641586  W2        4538            0.0000000000
     13613      4538  TIP3      H1            -13.9775587078      -15.7910063765      -10.6003141586  W2        4538            0.0000000000
     13614      4538  TIP3      H2            -13.8452687078      -14.8653063765       -9.4097441586  W2        4538            0.0000000000
     13615      4539  TIP3      OH2            -9.4428887078      -14.8680963765       -7.6158141586  W2        4539            0.0000000000
     13616      4539  TIP3      H1             -9.2647587078      -15.5147763765       -6.9329541586  W2        4539            0.0000000000
     13617      4539  TIP3      H2             -9.4962687078      -14.0343263765       -7.1487041586  W2        4539            0.0000000000
     13618      4540  TIP3      OH2            -7.5645087078        0.0803136235       -9.2201441586  W2        4540            0.0000000000
     13619      4540  TIP3      H1             -6.6984887078        0.4470536235       -9.3983241586  W2        4540            0.0000000000
     13620      4540  TIP3      H2             -7.8112287078       -0.3588863765      -10.0340641586  W2        4540            0.0000000000
     13621      4541  TIP3      OH2            -0.8555487078       -0.3566563765       -6.5410341586  W2        4541            0.0000000000
     13622      4541  TIP3      H1             -1.0498387078       -1.1044463765       -7.1060741586  W2        4541            0.0000000000
     13623      4541  TIP3      H2             -0.8945387078        0.4013536235       -7.1242441586  W2        4541            0.0000000000
     13624      4542  TIP3      OH2           -15.2083487078      -16.3610163765        5.1987358414  W2        4542            0.0000000000
     13625      4542  TIP3      H1            -15.5745287078      -17.1267563765        5.6412058414  W2        4542            0.0000000000
     13626      4542  TIP3      H2            -14.2954987078      -16.3319963765        5.4852458414  W2        4542            0.0000000000
     13627      4543  TIP3      OH2           -13.2352687078      -17.0105763765        6.7344458414  W2        4543            0.0000000000
     13628      4543  TIP3      H1            -12.3369087078      -17.2845563765        6.5497858414  W2        4543            0.0000000000
     13629      4543  TIP3      H2            -13.6219587078      -17.7529763765        7.1987058414  W2        4543            0.0000000000
     13630      4544  TIP3      OH2           -14.6107387078       -0.2090963765      -10.5925541586  W2        4544            0.0000000000
     13631      4544  TIP3      H1            -14.8782787078        0.0771936235       -9.7192441586  W2        4544            0.0000000000
     13632      4544  TIP3      H2            -13.8394787078       -0.7551763765      -10.4403041586  W2        4544            0.0000000000
     13633      4545  TIP3      OH2            -4.8140387078      -17.6780463765        6.9167258414  W2        4545            0.0000000000
     13634      4545  TIP3      H1             -4.7373187078      -18.1039763765        7.7704958414  W2        4545            0.0000000000
     13635      4545  TIP3      H2             -3.9203787078      -17.6645763765        6.5740758414  W2        4545            0.0000000000
     13636      4546  TIP3      OH2            -1.6379287078       -1.6054163765        5.6091458414  W2        4546            0.0000000000
     13637      4546  TIP3      H1             -2.4197387078       -1.7916163765        5.0892058414  W2        4546            0.0000000000
     13638      4546  TIP3      H2             -1.7099387078       -0.6759863765        5.8263958414  W2        4546            0.0000000000
     13639      4547  TIP3      OH2            12.7681112922       -7.7189763765       -4.3601341586  W2        4547            0.0000000000
     13640      4547  TIP3      H1             12.8572212922       -6.7751563765       -4.4924241586  W2        4547            0.0000000000
     13641      4547  TIP3      H2             12.1298712922       -7.9943363765       -5.0181941586  W2        4547            0.0000000000
     13642      4548  TIP3      OH2            11.7012412922       -8.4639063765       -0.9413141586  W2        4548            0.0000000000
     13643      4548  TIP3      H1             11.6629912922       -9.1102763765       -0.2363541586  W2        4548            0.0000000000
     13644      4548  TIP3      H2             11.3788912922       -8.9304663765       -1.7124441586  W2        4548            0.0000000000
     13645      4549  TIP3      OH2             4.0697412922       -8.8496963765        0.6516758414  W2        4549            0.0000000000
     13646      4549  TIP3      H1              4.1109512922       -9.4753663765        1.3749158414  W2        4549            0.0000000000
     13647      4549  TIP3      H2              4.7725112922       -8.2258363765        0.8337158414  W2        4549            0.0000000000
     13648      4550  TIP3      OH2            15.4072612922       -5.5248663765       -2.6398041586  W2        4550            0.0000000000
     13649      4550  TIP3      H1             14.9665312922       -6.2452663765       -2.1892441586  W2        4550            0.0000000000
     13650      4550  TIP3      H2             15.3942312922       -4.8041463765       -2.0100341586  W2        4550            0.0000000000
     13651      4551  TIP3      OH2             4.9930512922       -4.3998063765       -0.8134141586  W2        4551            0.0000000000
     13652      4551  TIP3      H1              4.6235712922       -5.2017563765       -1.1829841586  W2        4551            0.0000000000
     13653      4551  TIP3      H2              5.9341612922       -4.5683163765       -0.7670741586  W2        4551            0.0000000000
     13654      4552  TIP3      OH2             1.6031012922      -10.7395463765       -5.4205341586  W2        4552            0.0000000000
     13655      4552  TIP3      H1              1.1554412922       -9.8936763765       -5.4388841586  W2        4552            0.0000000000
     13656      4552  TIP3      H2              1.0422212922      -11.3191263765       -5.9360241586  W2        4552            0.0000000000
     13657      4553  TIP3      OH2             2.3137112922       -8.5775863765       -3.2947341586  W2        4553            0.0000000000
     13658      4553  TIP3      H1              2.5270612922       -9.3474263765       -2.7674341586  W2        4553            0.0000000000
     13659      4553  TIP3      H2              3.0514712922       -8.4879163765       -3.8979741586  W2        4553            0.0000000000
     13660      4554  TIP3      OH2            12.5188112922       -0.4206963765       -2.4277641586  W2        4554            0.0000000000
     13661      4554  TIP3      H1             13.1384512922       -1.0972263765       -2.7008441586  W2        4554            0.0000000000
     13662      4554  TIP3      H2             12.3105512922       -0.6386163765       -1.5192741586  W2        4554            0.0000000000
     13663      4555  TIP3      OH2            10.0906812922       -6.0317663765       -0.5352141586  W2        4555            0.0000000000
     13664      4555  TIP3      H1             10.3944712922       -6.7176263765       -1.1298041586  W2        4555            0.0000000000
     13665      4555  TIP3      H2             10.8120812922       -5.9128963765        0.0825858414  W2        4555            0.0000000000
     13666      4556  TIP3      OH2            18.7536612922      -14.4302363765        0.3254058414  W2        4556            0.0000000000
     13667      4556  TIP3      H1             18.8028812922      -13.8201163765        1.0613158414  W2        4556            0.0000000000
     13668      4556  TIP3      H2             19.1791712922      -13.9691463765       -0.3974841586  W2        4556            0.0000000000
     13669      4557  TIP3      OH2            13.2313812922      -11.6375263765       -0.2077341586  W2        4557            0.0000000000
     13670      4557  TIP3      H1             13.3739712922      -12.5838263765       -0.1875741586  W2        4557            0.0000000000
     13671      4557  TIP3      H2             13.1252812922      -11.4305463765       -1.1362441586  W2        4557            0.0000000000
     13672      4558  TIP3      OH2             6.3862112922      -13.5358863765       -2.9352541586  W2        4558            0.0000000000
     13673      4558  TIP3      H1              6.4293212922      -12.6760363765       -3.3536241586  W2        4558            0.0000000000
     13674      4558  TIP3      H2              5.9286212922      -14.0884163765       -3.5689341586  W2        4558            0.0000000000
     13675      4559  TIP3      OH2            14.1084812922      -13.4053263765       -4.5344241586  W2        4559            0.0000000000
     13676      4559  TIP3      H1             14.7549112922      -13.7340063765       -3.9096641586  W2        4559            0.0000000000
     13677      4559  TIP3      H2             14.6184212922      -12.8874263765       -5.1572841586  W2        4559            0.0000000000
     13678      4560  TIP3      OH2             3.0063612922      -11.1393063765       -2.1731141586  W2        4560            0.0000000000
     13679      4560  TIP3      H1              3.6600212922      -11.6891363765       -1.7411041586  W2        4560            0.0000000000
     13680      4560  TIP3      H2              3.0302912922      -11.4134063765       -3.0899141586  W2        4560            0.0000000000
     13681      4561  TIP3      OH2             8.1628112922       -9.5891763765       -2.9579641586  W2        4561            0.0000000000
     13682      4561  TIP3      H1              8.7789112922      -10.1156363765       -2.4485641586  W2        4561            0.0000000000
     13683      4561  TIP3      H2              7.5766912922      -10.2293063765       -3.3616041586  W2        4561            0.0000000000
     13684      4562  TIP3      OH2            19.1451212922      -12.9523163765        2.5613858414  W2        4562            0.0000000000
     13685      4562  TIP3      H1             18.4565812922      -12.2942463765        2.4660458414  W2        4562            0.0000000000
     13686      4562  TIP3      H2             19.1605812922      -13.1495263765        3.4979258414  W2        4562            0.0000000000
     13687      4563  TIP3      OH2             5.1964012922      -14.6180463765        1.1388258414  W2        4563            0.0000000000
     13688      4563  TIP3      H1              4.9775712922      -14.0879863765        0.3724258414  W2        4563            0.0000000000
     13689      4563  TIP3      H2              4.5284912922      -14.3914963765        1.7859658414  W2        4563            0.0000000000
     13690      4564  TIP3      OH2            12.5653812922       -5.1179363765       -5.3172641586  W2        4564            0.0000000000
     13691      4564  TIP3      H1             12.2698912922       -5.4407063765       -6.1685741586  W2        4564            0.0000000000
     13692      4564  TIP3      H2             12.2411612922       -4.2182663765       -5.2760041586  W2        4564            0.0000000000
     13693      4565  TIP3      OH2             7.7655412922       -6.9424763765        1.4261958414  W2        4565            0.0000000000
     13694      4565  TIP3      H1              7.0254512922       -6.3443263765        1.5297158414  W2        4565            0.0000000000
     13695      4565  TIP3      H2              8.4794912922       -6.3885163765        1.1105558414  W2        4565            0.0000000000
     13696      4566  TIP3      OH2            15.8723212922      -14.1143963765       -2.5538341586  W2        4566            0.0000000000
     13697      4566  TIP3      H1             15.6571212922      -14.8800563765       -2.0212341586  W2        4566            0.0000000000
     13698      4566  TIP3      H2             16.5280612922      -13.6419363765       -2.0409841586  W2        4566            0.0000000000
     13699      4567  TIP3      OH2             4.7901312922      -12.7258663765       -0.9089541586  W2        4567            0.0000000000
     13700      4567  TIP3      H1              5.4037612922      -12.0931063765       -0.5357141586  W2        4567            0.0000000000
     13701      4567  TIP3      H2              5.3022012922      -13.1983663765       -1.5652641586  W2        4567            0.0000000000
     13702      4568  TIP3      OH2             6.1729712922       -4.9781763765        2.2133458414  W2        4568            0.0000000000
     13703      4568  TIP3      H1              6.1677312922       -4.0988263765        1.8352758414  W2        4568            0.0000000000
     13704      4568  TIP3      H2              5.3193812922       -5.0617663765        2.6383358414  W2        4568            0.0000000000
     13705      4569  TIP3      OH2             2.2940612922       -5.3073863765       -7.0047241586  W2        4569            0.0000000000
     13706      4569  TIP3      H1              2.0221512922       -5.0782863765       -7.8934341586  W2        4569            0.0000000000
     13707      4569  TIP3      H2              2.3396312922       -4.4695063765       -6.5441941586  W2        4569            0.0000000000
     13708      4570  TIP3      OH2            15.9190312922       -3.6857963765       -0.2918741586  W2        4570            0.0000000000
     13709      4570  TIP3      H1             14.9774012922       -3.6274063765       -0.1301841586  W2        4570            0.0000000000
     13710      4570  TIP3      H2             16.1956412922       -2.7797463765       -0.4289041586  W2        4570            0.0000000000
     13711      4571  TIP3      OH2            16.2197312922      -15.3992663765        1.1255158414  W2        4571            0.0000000000
     13712      4571  TIP3      H1             15.4836512922      -14.7885563765        1.0876458414  W2        4571            0.0000000000
     13713      4571  TIP3      H2             16.9031312922      -14.9843663765        0.5991558414  W2        4571            0.0000000000
     13714      4572  TIP3      OH2             9.2228712922      -17.3125363765       -1.4086841586  W2        4572            0.0000000000
     13715      4572  TIP3      H1              9.1052912922      -18.2609363765       -1.4628541586  W2        4572            0.0000000000
     13716      4572  TIP3      H2              8.3678812922      -16.9799263765       -1.1355741586  W2        4572            0.0000000000
     13717      4573  TIP3      OH2            14.1711512922       -1.9044463765       -3.6667141586  W2        4573            0.0000000000
     13718      4573  TIP3      H1             14.5963812922       -2.6116563765       -4.1517541586  W2        4573            0.0000000000
     13719      4573  TIP3      H2             14.4881512922       -1.1031763765       -4.0834941586  W2        4573            0.0000000000
     13720      4574  TIP3      OH2            15.3308012922       -4.0035963765       -5.1580541586  W2        4574            0.0000000000
     13721      4574  TIP3      H1             15.0732812922       -4.6935863765       -5.7694641586  W2        4574            0.0000000000
     13722      4574  TIP3      H2             15.4018812922       -4.4464763765       -4.3124641586  W2        4574            0.0000000000
     13723      4575  TIP3      OH2            17.0168212922       -5.4369263765        3.3192958414  W2        4575            0.0000000000
     13724      4575  TIP3      H1             17.1564512922       -6.0286763765        2.5799958414  W2        4575            0.0000000000
     13725      4575  TIP3      H2             17.1841012922       -4.5643363765        2.9631758414  W2        4575            0.0000000000
     13726      4576  TIP3      OH2            11.4893612922       -8.4749763765       -6.9081041586  W2        4576            0.0000000000
     13727      4576  TIP3      H1             10.7779112922       -7.9400063765       -7.2600541586  W2        4576            0.0000000000
     13728      4576  TIP3      H2             12.1803212922       -8.4197663765       -7.5682141586  W2        4576            0.0000000000
     13729      4577  TIP3      OH2            11.5432812922      -10.0175463765       -9.8696041586  W2        4577            0.0000000000
     13730      4577  TIP3      H1             12.2442712922       -9.9948563765       -9.2182041586  W2        4577            0.0000000000
     13731      4577  TIP3      H2             11.8455712922      -10.6455763765      -10.5256741586  W2        4577            0.0000000000
     13732      4578  TIP3      OH2            18.8587512922       -9.0971263765        1.3853358414  W2        4578            0.0000000000
     13733      4578  TIP3      H1             18.2061612922       -8.4025663765        1.4744258414  W2        4578            0.0000000000
     13734      4578  TIP3      H2             19.3237812922       -8.8870363765        0.5754958414  W2        4578            0.0000000000
     13735      4579  TIP3      OH2            14.8951312922       -8.2656463765       -5.9565141586  W2        4579            0.0000000000
     13736      4579  TIP3      H1             14.1632312922       -8.0372763765       -5.3834541586  W2        4579            0.0000000000
     13737      4579  TIP3      H2             15.3423512922       -8.9793763765       -5.5017641586  W2        4579            0.0000000000
     13738      4580  TIP3      OH2            14.7924812922      -10.0913863765        3.1111858414  W2        4580            0.0000000000
     13739      4580  TIP3      H1             14.8723912922       -9.3279463765        3.6830358414  W2        4580            0.0000000000
     13740      4580  TIP3      H2             14.1912512922       -9.8121463765        2.4206958414  W2        4580            0.0000000000
     13741      4581  TIP3      OH2             6.5405012922       -7.6350263765       -4.0740141586  W2        4581            0.0000000000
     13742      4581  TIP3      H1              6.2100212922       -8.0056863765       -4.8923141586  W2        4581            0.0000000000
     13743      4581  TIP3      H2              7.1289112922       -8.3056263765       -3.7271841586  W2        4581            0.0000000000
     13744      4582  TIP3      OH2             7.9072512922       -4.2069663765       -1.3927941586  W2        4582            0.0000000000
     13745      4582  TIP3      H1              7.8123812922       -4.7856563765       -2.1493341586  W2        4582            0.0000000000
     13746      4582  TIP3      H2              8.6366112922       -4.5783963765       -0.8965141586  W2        4582            0.0000000000
     13747      4583  TIP3      OH2             6.9070512922       -8.8664663765       -0.4405141586  W2        4583            0.0000000000
     13748      4583  TIP3      H1              7.4723012922       -8.7450463765       -1.2033941586  W2        4583            0.0000000000
     13749      4583  TIP3      H2              7.2259412922       -8.2289663765        0.1983358414  W2        4583            0.0000000000
     13750      4584  TIP3      OH2            13.2162712922       -3.3632763765        0.2935358414  W2        4584            0.0000000000
     13751      4584  TIP3      H1             12.9759312922       -2.7009663765        0.9414558414  W2        4584            0.0000000000
     13752      4584  TIP3      H2             13.0180912922       -4.1977563765        0.7184958414  W2        4584            0.0000000000
     13753      4585  TIP3      OH2             7.7871212922       -4.4671963765        4.2766758414  W2        4585            0.0000000000
     13754      4585  TIP3      H1              7.4758712922       -3.6848763765        4.7319958414  W2        4585            0.0000000000
     13755      4585  TIP3      H2              7.1371412922       -4.6202863765        3.5908758414  W2        4585            0.0000000000
     13756      4586  TIP3      OH2            13.7660812922       -9.1033563765       -8.2713941586  W2        4586            0.0000000000
     13757      4586  TIP3      H1             14.3456312922       -8.9533263765       -7.5245041586  W2        4586            0.0000000000
     13758      4586  TIP3      H2             14.1800812922       -8.6326163765       -8.9947541586  W2        4586            0.0000000000
     13759      4587  TIP3      OH2             4.7071112922       -8.2690863765        3.5052458414  W2        4587            0.0000000000
     13760      4587  TIP3      H1              4.7774312922       -7.6184063765        4.2037458414  W2        4587            0.0000000000
     13761      4587  TIP3      H2              3.8163312922       -8.1663363765        3.1703358414  W2        4587            0.0000000000
     13762      4588  TIP3      OH2            11.4925712922       -2.3665063765       -4.8360841586  W2        4588            0.0000000000
     13763      4588  TIP3      H1             11.9663312922       -2.0708763765       -4.0586641586  W2        4588            0.0000000000
     13764      4588  TIP3      H2             10.9295012922       -1.6283463765       -5.0691241586  W2        4588            0.0000000000
     13765      4589  TIP3      OH2             6.0267112922       -2.3956963765        5.0400558414  W2        4589            0.0000000000
     13766      4589  TIP3      H1              6.0342412922       -2.5317263765        4.0926058414  W2        4589            0.0000000000
     13767      4589  TIP3      H2              5.1107512922       -2.5128863765        5.2920558414  W2        4589            0.0000000000
     13768      4590  TIP3      OH2            17.4649212922      -17.3533163765       -8.4584241586  W2        4590            0.0000000000
     13769      4590  TIP3      H1             16.5649912922      -17.2144163765       -8.1633641586  W2        4590            0.0000000000
     13770      4590  TIP3      H2             17.7167612922      -16.5218563765       -8.8602541586  W2        4590            0.0000000000
     13771      4591  TIP3      OH2             5.5307712922       -8.5655963765       -6.4847341586  W2        4591            0.0000000000
     13772      4591  TIP3      H1              5.2389012922       -7.7974263765       -6.9756041586  W2        4591            0.0000000000
     13773      4591  TIP3      H2              4.8562912922       -9.2249763765       -6.6475941586  W2        4591            0.0000000000
     13774      4592  TIP3      OH2            18.6540612922       -2.9870763765      -10.0820341586  W2        4592            0.0000000000
     13775      4592  TIP3      H1             18.7274112922       -2.0480563765       -9.9115041586  W2        4592            0.0000000000
     13776      4592  TIP3      H2             19.5595712922       -3.2922163765      -10.1383041586  W2        4592            0.0000000000
     13777      4593  TIP3      OH2             1.6237812922       -6.2026763765        2.3302458414  W2        4593            0.0000000000
     13778      4593  TIP3      H1              1.1226212922       -6.2307363765        1.5152158414  W2        4593            0.0000000000
     13779      4593  TIP3      H2              1.6291512922       -7.1083563765        2.6399758414  W2        4593            0.0000000000
     13780      4594  TIP3      OH2             1.3740512922       -3.4222963765       -0.7857341586  W2        4594            0.0000000000
     13781      4594  TIP3      H1              2.3201112922       -3.5665963765       -0.8047841586  W2        4594            0.0000000000
     13782      4594  TIP3      H2              1.2616812922       -2.6380163765       -0.2486141586  W2        4594            0.0000000000
     13783      4595  TIP3      OH2            19.5719012922       -2.7563263765        4.8966358414  W2        4595            0.0000000000
     13784      4595  TIP3      H1             19.5225812922       -3.7115163765        4.8593958414  W2        4595            0.0000000000
     13785      4595  TIP3      H2             18.7451312922       -2.4887963765        5.2980158414  W2        4595            0.0000000000
     13786      4596  TIP3      OH2            10.5503012922       -3.1824063765        3.7727758414  W2        4596            0.0000000000
     13787      4596  TIP3      H1             10.6377612922       -2.3559463765        4.2476858414  W2        4596            0.0000000000
     13788      4596  TIP3      H2              9.6868112922       -3.5120263765        4.0217058414  W2        4596            0.0000000000
     13789      4597  TIP3      OH2            10.9648812922        0.5899636235       -6.4211641586  W2        4597            0.0000000000
     13790      4597  TIP3      H1             10.8894812922        0.4686836235       -7.3676441586  W2        4597            0.0000000000
     13791      4597  TIP3      H2             10.9977512922        1.5392336235       -6.3027041586  W2        4597            0.0000000000
     13792      4598  TIP3      OH2             4.6182612922       -0.6213363765       -4.6402641586  W2        4598            0.0000000000
     13793      4598  TIP3      H1              4.7703012922       -0.9692963765       -3.7616141586  W2        4598            0.0000000000
     13794      4598  TIP3      H2              3.7673012922       -0.9776063765       -4.8955441586  W2        4598            0.0000000000
     13795      4599  TIP3      OH2            14.0664812922       -0.2560163765       -9.4189241586  W2        4599            0.0000000000
     13796      4599  TIP3      H1             14.4413212922       -1.0004063765       -9.8896641586  W2        4599            0.0000000000
     13797      4599  TIP3      H2             14.0708512922       -0.5259563765       -8.5005941586  W2        4599            0.0000000000
     13798      4600  TIP3      OH2            13.7352912922       -0.3303063765       -6.6697041586  W2        4600            0.0000000000
     13799      4600  TIP3      H1             12.8002712922       -0.2301163765       -6.4910041586  W2        4600            0.0000000000
     13800      4600  TIP3      H2             14.0154812922       -1.0397063765       -6.0913841586  W2        4600            0.0000000000
     13801      4601  TIP3      OH2            16.7238812922      -11.2630763765        5.3768558414  W2        4601            0.0000000000
     13802      4601  TIP3      H1             16.3165612922      -10.7825163765        4.6561858414  W2        4601            0.0000000000
     13803      4601  TIP3      H2             16.7644512922      -12.1684763765        5.0689358414  W2        4601            0.0000000000
     13804      4602  TIP3      OH2             3.8728312922       -4.8791363765        3.3735258414  W2        4602            0.0000000000
     13805      4602  TIP3      H1              4.0889612922       -5.2405763765        4.2331058414  W2        4602            0.0000000000
     13806      4602  TIP3      H2              3.0173012922       -5.2537563765        3.1638758414  W2        4602            0.0000000000
     13807      4603  TIP3      OH2             6.4916312922      -16.4090863765       -0.6310541586  W2        4603            0.0000000000
     13808      4603  TIP3      H1              5.6300012922      -16.4962663765       -1.0387641586  W2        4603            0.0000000000
     13809      4603  TIP3      H2              6.4692012922      -15.5530763765       -0.2032941586  W2        4603            0.0000000000
     13810      4604  TIP3      OH2            11.1544112922      -16.6870463765        2.7436458414  W2        4604            0.0000000000
     13811      4604  TIP3      H1             11.5747212922      -17.1023363765        3.4967058414  W2        4604            0.0000000000
     13812      4604  TIP3      H2             10.2213712922      -16.8657163765        2.8608458414  W2        4604            0.0000000000
     13813      4605  TIP3      OH2            14.4809012922      -12.9315263765        3.5970958414  W2        4605            0.0000000000
     13814      4605  TIP3      H1             13.9668512922      -13.0573063765        4.3946958414  W2        4605            0.0000000000
     13815      4605  TIP3      H2             14.3253712922      -12.0192163765        3.3527158414  W2        4605            0.0000000000
     13816      4606  TIP3      OH2            15.2433912922       -8.0705263765      -10.6416041586  W2        4606            0.0000000000
     13817      4606  TIP3      H1             15.2854712922       -8.2931363765      -11.5716041586  W2        4606            0.0000000000
     13818      4606  TIP3      H2             16.0926012922       -7.6718163765      -10.4516141586  W2        4606            0.0000000000
     13819      4607  TIP3      OH2            10.8161412922      -14.1947063765       -9.9712741586  W2        4607            0.0000000000
     13820      4607  TIP3      H1             10.5626212922      -14.1755463765       -9.0484641586  W2        4607            0.0000000000
     13821      4607  TIP3      H2             10.5593512922      -15.0661663765      -10.2726541586  W2        4607            0.0000000000
     13822      4608  TIP3      OH2             6.5826412922      -11.4436363765        0.4639658414  W2        4608            0.0000000000
     13823      4608  TIP3      H1              5.9408512922      -11.4839063765        1.1729758414  W2        4608            0.0000000000
     13824      4608  TIP3      H2              6.6198412922      -10.5171663765        0.2262658414  W2        4608            0.0000000000
     13825      4609  TIP3      OH2             6.5795512922      -11.2226263765       -4.6240341586  W2        4609            0.0000000000
     13826      4609  TIP3      H1              5.6868412922      -11.5630163765       -4.6826541586  W2        4609            0.0000000000
     13827      4609  TIP3      H2              7.0302112922      -11.5995363765       -5.3797141586  W2        4609            0.0000000000
     13828      4610  TIP3      OH2            12.1151012922      -10.8065963765       -5.8069541586  W2        4610            0.0000000000
     13829      4610  TIP3      H1             11.7061312922       -9.9917363765       -6.0984741586  W2        4610            0.0000000000
     13830      4610  TIP3      H2             12.8357212922      -10.9465863765       -6.4212441586  W2        4610            0.0000000000
     13831      4611  TIP3      OH2            11.2172612922      -10.6309563765        5.6811158414  W2        4611            0.0000000000
     13832      4611  TIP3      H1             10.6546412922      -11.3357963765        6.0018958414  W2        4611            0.0000000000
     13833      4611  TIP3      H2             12.0436012922      -10.7517663765        6.1488758414  W2        4611            0.0000000000
     13834      4612  TIP3      OH2            13.1198712922      -11.3605563765       -2.9929841586  W2        4612            0.0000000000
     13835      4612  TIP3      H1             12.9243212922      -10.7548763765       -3.7079241586  W2        4612            0.0000000000
     13836      4612  TIP3      H2             13.3011312922      -12.1940363765       -3.4273541586  W2        4612            0.0000000000
     13837      4613  TIP3      OH2             4.3326912922      -11.1232863765        2.3311658414  W2        4613            0.0000000000
     13838      4613  TIP3      H1              4.2946312922      -10.7231263765        3.1998758414  W2        4613            0.0000000000
     13839      4613  TIP3      H2              3.8418012922      -11.9400463765        2.4214558414  W2        4613            0.0000000000
     13840      4614  TIP3      OH2             7.6984312922      -13.7490563765      -10.8702341586  W2        4614            0.0000000000
     13841      4614  TIP3      H1              7.2675012922      -14.1940463765      -10.1404941586  W2        4614            0.0000000000
     13842      4614  TIP3      H2              6.9803012922      -13.3774263765      -11.3824841586  W2        4614            0.0000000000
     13843      4615  TIP3      OH2             0.9407712922      -14.0071063765       -3.8183641586  W2        4615            0.0000000000
     13844      4615  TIP3      H1              1.5715412922      -14.0358963765       -3.0989741586  W2        4615            0.0000000000
     13845      4615  TIP3      H2              1.3902012922      -14.4322363765       -4.5487741586  W2        4615            0.0000000000
     13846      4616  TIP3      OH2             2.2149812922      -13.2609063765       -8.3943241586  W2        4616            0.0000000000
     13847      4616  TIP3      H1              2.6891512922      -12.6699163765       -8.9792341586  W2        4616            0.0000000000
     13848      4616  TIP3      H2              1.4976212922      -12.7306163765       -8.0473141586  W2        4616            0.0000000000
     13849      4617  TIP3      OH2            12.3837912922       -9.7224263765        1.6782558414  W2        4617            0.0000000000
     13850      4617  TIP3      H1             12.7072712922      -10.3534563765        1.0353058414  W2        4617            0.0000000000
     13851      4617  TIP3      H2             11.9437212922      -10.2572063765        2.3389958414  W2        4617            0.0000000000
     13852      4618  TIP3      OH2             9.1610812922      -13.7948763765       -3.5376241586  W2        4618            0.0000000000
     13853      4618  TIP3      H1              8.2501912922      -13.7381963765       -3.2490241586  W2        4618            0.0000000000
     13854      4618  TIP3      H2              9.6663712922      -13.8553263765       -2.7269041586  W2        4618            0.0000000000
     13855      4619  TIP3      OH2             3.9894212922      -12.1662463765       -4.7108641586  W2        4619            0.0000000000
     13856      4619  TIP3      H1              3.1002212922      -12.0666963765       -5.0509041586  W2        4619            0.0000000000
     13857      4619  TIP3      H2              4.2859112922      -13.0079463765       -5.0570741586  W2        4619            0.0000000000
     13858      4620  TIP3      OH2             7.6426012922      -12.1659863765       -7.0544041586  W2        4620            0.0000000000
     13859      4620  TIP3      H1              8.5741512922      -12.0369863765       -6.8760941586  W2        4620            0.0000000000
     13860      4620  TIP3      H2              7.4276312922      -11.4965563765       -7.7039341586  W2        4620            0.0000000000
     13861      4621  TIP3      OH2            13.5662712922      -14.5602463765       -0.2734441586  W2        4621            0.0000000000
     13862      4621  TIP3      H1             12.8894312922      -14.4289363765        0.3905258414  W2        4621            0.0000000000
     13863      4621  TIP3      H2             13.0807612922      -14.7152963765       -1.0836741586  W2        4621            0.0000000000
     13864      4622  TIP3      OH2             6.3166212922      -10.9717663765       -9.4877941586  W2        4622            0.0000000000
     13865      4622  TIP3      H1              5.7741312922      -11.3513863765      -10.1790341586  W2        4622            0.0000000000
     13866      4622  TIP3      H2              7.1501112922      -10.7772963765       -9.9163841586  W2        4622            0.0000000000
     13867      4623  TIP3      OH2            16.8537812922        1.1112936235        6.0033158414  W2        4623            0.0000000000
     13868      4623  TIP3      H1             17.0536512922        1.5354836235        5.1688458414  W2        4623            0.0000000000
     13869      4623  TIP3      H2             17.5091512922        1.4551136235        6.6103558414  W2        4623            0.0000000000
     13870      4624  TIP3      OH2             4.4517612922       -6.4145763765        5.6113658414  W2        4624            0.0000000000
     13871      4624  TIP3      H1              5.1840012922       -6.1599863765        6.1728158414  W2        4624            0.0000000000
     13872      4624  TIP3      H2              3.6716312922       -6.2100363765        6.1269058414  W2        4624            0.0000000000
     13873      4625  TIP3      OH2            10.4810512922      -11.0075763765       -1.6506641586  W2        4625            0.0000000000
     13874      4625  TIP3      H1             11.0453912922      -11.5539163765       -2.1977041586  W2        4625            0.0000000000
     13875      4625  TIP3      H2             10.3333912922      -11.5293863765       -0.8619041586  W2        4625            0.0000000000
     13876      4626  TIP3      OH2             5.4830212922      -14.8709663765       -5.2321841586  W2        4626            0.0000000000
     13877      4626  TIP3      H1              5.1659712922      -15.7734363765       -5.2676441586  W2        4626            0.0000000000
     13878      4626  TIP3      H2              6.2644312922      -14.8692263765       -5.7850241586  W2        4626            0.0000000000
     13879      4627  TIP3      OH2             9.1076412922      -12.6189663765        0.7633758414  W2        4627            0.0000000000
     13880      4627  TIP3      H1              8.2721712922      -12.1650163765        0.8736158414  W2        4627            0.0000000000
     13881      4627  TIP3      H2              9.6317012922      -12.3431163765        1.5153658414  W2        4627            0.0000000000
     13882      4628  TIP3      OH2             9.6519012922       -6.4061963765       -7.5519841586  W2        4628            0.0000000000
     13883      4628  TIP3      H1              8.9070012922       -6.9136663765       -7.8741941586  W2        4628            0.0000000000
     13884      4628  TIP3      H2              9.5176212922       -6.3573963765       -6.6055041586  W2        4628            0.0000000000
     13885      4629  TIP3      OH2            16.8017912922       -7.2733763765        1.2347758414  W2        4629            0.0000000000
     13886      4629  TIP3      H1             17.4436712922       -6.8167463765        0.6909958414  W2        4629            0.0000000000
     13887      4629  TIP3      H2             15.9714812922       -7.1601363765        0.7721858414  W2        4629            0.0000000000
     13888      4630  TIP3      OH2            13.5495812922      -13.5922063765       -9.3527241586  W2        4630            0.0000000000
     13889      4630  TIP3      H1             12.6110012922      -13.4806463765       -9.5038441586  W2        4630            0.0000000000
     13890      4630  TIP3      H2             13.8467912922      -12.7355163765       -9.0461541586  W2        4630            0.0000000000
     13891      4631  TIP3      OH2            11.1711112922       -6.2218663765        3.6849258414  W2        4631            0.0000000000
     13892      4631  TIP3      H1             10.8257212922       -6.6036263765        4.4918858414  W2        4631            0.0000000000
     13893      4631  TIP3      H2             10.9711212922       -5.2885063765        3.7562158414  W2        4631            0.0000000000
     13894      4632  TIP3      OH2            14.2679312922      -11.7249363765       -7.6919841586  W2        4632            0.0000000000
     13895      4632  TIP3      H1             15.1598312922      -11.8624363765       -7.3728641586  W2        4632            0.0000000000
     13896      4632  TIP3      H2             14.3242912922      -10.9343263765       -8.2286341586  W2        4632            0.0000000000
     13897      4633  TIP3      OH2             4.7767312922       -7.1111963765       -1.7821941586  W2        4633            0.0000000000
     13898      4633  TIP3      H1              5.5214512922       -7.1136263765       -2.3835441586  W2        4633            0.0000000000
     13899      4633  TIP3      H2              4.8543912922       -7.9348163765       -1.3006841586  W2        4633            0.0000000000
     13900      4634  TIP3      OH2            11.7773112922       -4.9477663765       -8.5265241586  W2        4634            0.0000000000
     13901      4634  TIP3      H1             11.4821512922       -4.1209763765       -8.1450441586  W2        4634            0.0000000000
     13902      4634  TIP3      H2             11.0743112922       -5.5670763765       -8.3303841586  W2        4634            0.0000000000
     13903      4635  TIP3      OH2             1.7847012922       -8.6505063765        3.5326558414  W2        4635            0.0000000000
     13904      4635  TIP3      H1              2.0075612922       -9.0685463765        4.3644058414  W2        4635            0.0000000000
     13905      4635  TIP3      H2              1.1827112922       -9.2630063765        3.1099358414  W2        4635            0.0000000000
     13906      4636  TIP3      OH2             8.8011912922       -9.1335163765        5.7456258414  W2        4636            0.0000000000
     13907      4636  TIP3      H1              8.5052712922       -9.2992163765        4.8505358414  W2        4636            0.0000000000
     13908      4636  TIP3      H2              9.7327112922       -9.3534863765        5.7350158414  W2        4636            0.0000000000
     13909      4637  TIP3      OH2            13.4214712922       -3.7603163765        3.6354258414  W2        4637            0.0000000000
     13910      4637  TIP3      H1             12.5209012922       -3.5770563765        3.3678158414  W2        4637            0.0000000000
     13911      4637  TIP3      H2             13.4555812922       -3.5013863765        4.5563058414  W2        4637            0.0000000000
     13912      4638  TIP3      OH2            19.1528012922      -11.5155263765       -7.9973141586  W2        4638            0.0000000000
     13913      4638  TIP3      H1             18.5984312922      -11.9117263765       -8.6695641586  W2        4638            0.0000000000
     13914      4638  TIP3      H2             19.2531612922      -10.6050063765       -8.2749841586  W2        4638            0.0000000000
     13915      4639  TIP3      OH2            19.1160012922       -5.7153563765        4.8398358414  W2        4639            0.0000000000
     13916      4639  TIP3      H1             18.2648512922       -5.4769763765        4.4724758414  W2        4639            0.0000000000
     13917      4639  TIP3      H2             19.7063412922       -5.7320363765        4.0865458414  W2        4639            0.0000000000
     13918      4640  TIP3      OH2            17.4479712922       -2.7294863765       -7.5321041586  W2        4640            0.0000000000
     13919      4640  TIP3      H1             17.0750812922       -3.5551063765       -7.2230441586  W2        4640            0.0000000000
     13920      4640  TIP3      H2             17.7253212922       -2.9125463765       -8.4297641586  W2        4640            0.0000000000
     13921      4641  TIP3      OH2            14.6083612922       -7.9215363765       -0.5109141586  W2        4641            0.0000000000
     13922      4641  TIP3      H1             13.6800512922       -8.1533463765       -0.5379841586  W2        4641            0.0000000000
     13923      4641  TIP3      H2             15.0594712922       -8.6985563765       -0.8410341586  W2        4641            0.0000000000
     13924      4642  TIP3      OH2             7.1516712922       -3.5933763765       -4.3780441586  W2        4642            0.0000000000
     13925      4642  TIP3      H1              7.6788912922       -2.8199363765       -4.5781641586  W2        4642            0.0000000000
     13926      4642  TIP3      H2              6.2715212922       -3.3684563765       -4.6796441586  W2        4642            0.0000000000
     13927      4643  TIP3      OH2             2.9064412922       -8.7309663765       -9.7908041586  W2        4643            0.0000000000
     13928      4643  TIP3      H1              3.5224312922       -8.1042463765       -9.4113241586  W2        4643            0.0000000000
     13929      4643  TIP3      H2              2.0447012922       -8.4149863765       -9.5191541586  W2        4643            0.0000000000
     13930      4644  TIP3      OH2             8.5789012922       -5.9303863765       -4.8016141586  W2        4644            0.0000000000
     13931      4644  TIP3      H1              8.3379012922       -5.0049463765       -4.7600841586  W2        4644            0.0000000000
     13932      4644  TIP3      H2              7.8382612922       -6.3892563765       -4.4052241586  W2        4644            0.0000000000
     13933      4645  TIP3      OH2             9.0935612922       -1.7810263765        1.5134958414  W2        4645            0.0000000000
     13934      4645  TIP3      H1              9.4560312922       -0.9264663765        1.2799358414  W2        4645            0.0000000000
     13935      4645  TIP3      H2              9.6250812922       -2.0728663765        2.2541258414  W2        4645            0.0000000000
     13936      4646  TIP3      OH2             7.2619812922       -0.9086263765       -5.2563941586  W2        4646            0.0000000000
     13937      4646  TIP3      H1              6.3120312922       -0.8028863765       -5.2050641586  W2        4646            0.0000000000
     13938      4646  TIP3      H2              7.6137912922       -0.0878863765       -4.9116441586  W2        4646            0.0000000000
     13939      4647  TIP3      OH2            12.6376412922       -5.6819563765        1.2140558414  W2        4647            0.0000000000
     13940      4647  TIP3      H1             12.2117712922       -5.9097863765        2.0404558414  W2        4647            0.0000000000
     13941      4647  TIP3      H2             13.2182212922       -6.4207763765        1.0315858414  W2        4647            0.0000000000
     13942      4648  TIP3      OH2            14.8405312922       -4.7529063765       -9.7120441586  W2        4648            0.0000000000
     13943      4648  TIP3      H1             15.1938412922       -5.1329263765       -8.9076941586  W2        4648            0.0000000000
     13944      4648  TIP3      H2             13.8918812922       -4.8464263765       -9.6251141586  W2        4648            0.0000000000
     13945      4649  TIP3      OH2            15.2960612922       -1.1300063765        3.6835358414  W2        4649            0.0000000000
     13946      4649  TIP3      H1             14.6943812922       -1.6857163765        3.1881658414  W2        4649            0.0000000000
     13947      4649  TIP3      H2             15.5774312922       -0.4630263765        3.0572758414  W2        4649            0.0000000000
     13948      4650  TIP3      OH2            19.3439712922       -0.2736563765       -9.5110241586  W2        4650            0.0000000000
     13949      4650  TIP3      H1             20.0877612922        0.3123936235       -9.6508641586  W2        4650            0.0000000000
     13950      4650  TIP3      H2             18.6497812922        0.2949236235       -9.1777841586  W2        4650            0.0000000000
     13951      4651  TIP3      OH2             3.4186512922      -13.8972363765        3.0907958414  W2        4651            0.0000000000
     13952      4651  TIP3      H1              2.5258812922      -13.5586963765        3.0231958414  W2        4651            0.0000000000
     13953      4651  TIP3      H2              3.3199312922      -14.7526263765        3.5088758414  W2        4651            0.0000000000
     13954      4652  TIP3      OH2            15.7064612922       -6.0807063765       -7.4852541586  W2        4652            0.0000000000
     13955      4652  TIP3      H1             15.4292212922       -6.8087763765       -6.9291441586  W2        4652            0.0000000000
     13956      4652  TIP3      H2             16.6337612922       -5.9615063765       -7.2799941586  W2        4652            0.0000000000
     13957      4653  TIP3      OH2             3.0698512922       -2.0927963765        1.5257358414  W2        4653            0.0000000000
     13958      4653  TIP3      H1              3.2868812922       -3.0245563765        1.4947058414  W2        4653            0.0000000000
     13959      4653  TIP3      H2              3.3162012922       -1.8182963765        2.4090158414  W2        4653            0.0000000000
     13960      4654  TIP3      OH2             8.9313112922       -3.6412963765      -11.2650441586  W2        4654            0.0000000000
     13961      4654  TIP3      H1              9.1702912922       -4.3894863765      -11.8121541586  W2        4654            0.0000000000
     13962      4654  TIP3      H2              8.6624412922       -4.0291263765      -10.4322641586  W2        4654            0.0000000000
     13963      4655  TIP3      OH2             7.8683712922       -4.0709163765       -8.8087841586  W2        4655            0.0000000000
     13964      4655  TIP3      H1              8.0151712922       -4.5909363765       -8.0186941586  W2        4655            0.0000000000
     13965      4655  TIP3      H2              7.8655412922       -3.1641563765       -8.5021941586  W2        4655            0.0000000000
     13966      4656  TIP3      OH2             4.3214812922       -6.8185863765       -8.2982441586  W2        4656            0.0000000000
     13967      4656  TIP3      H1              3.6354112922       -6.4663363765       -7.7312741586  W2        4656            0.0000000000
     13968      4656  TIP3      H2              4.8442712922       -6.0556263765       -8.5448141586  W2        4656            0.0000000000
     13969      4657  TIP3      OH2            12.1529912922      -14.1562063765        1.9806558414  W2        4657            0.0000000000
     13970      4657  TIP3      H1             12.8517812922      -14.0823363765        2.6306258414  W2        4657            0.0000000000
     13971      4657  TIP3      H2             11.7721312922      -15.0207063765        2.1349458414  W2        4657            0.0000000000
     13972      4658  TIP3      OH2            12.9374812922      -14.5040363765       -6.9221141586  W2        4658            0.0000000000
     13973      4658  TIP3      H1             13.1573112922      -14.0324963765       -7.7255741586  W2        4658            0.0000000000
     13974      4658  TIP3      H2             13.4958812922      -14.1097763765       -6.2520541586  W2        4658            0.0000000000
     13975      4659  TIP3      OH2            10.6060912922       -2.3735563765       -8.0593641586  W2        4659            0.0000000000
     13976      4659  TIP3      H1              9.7897012922       -1.8765863765       -8.0069341586  W2        4659            0.0000000000
     13977      4659  TIP3      H2             11.1357212922       -1.8982063765       -8.6994841586  W2        4659            0.0000000000
     13978      4660  TIP3      OH2            10.1374712922      -12.7761563765       -6.0872741586  W2        4660            0.0000000000
     13979      4660  TIP3      H1             10.9497312922      -12.2718363765       -6.0411041586  W2        4660            0.0000000000
     13980      4660  TIP3      H2              9.8927712922      -12.9211863765       -5.1733141586  W2        4660            0.0000000000
     13981      4661  TIP3      OH2            10.6731112922      -11.7898863765        3.0973858414  W2        4661            0.0000000000
     13982      4661  TIP3      H1             10.7921412922      -11.2163463765        3.8544258414  W2        4661            0.0000000000
     13983      4661  TIP3      H2             11.3285712922      -12.4779463765        3.2121658414  W2        4661            0.0000000000
     13984      4662  TIP3      OH2            11.0211412922      -15.6948563765       -5.1491641586  W2        4662            0.0000000000
     13985      4662  TIP3      H1             10.6744912922      -15.0777963765       -4.5047341586  W2        4662            0.0000000000
     13986      4662  TIP3      H2             11.6798312922      -15.1942863765       -5.6306141586  W2        4662            0.0000000000
     13987      4663  TIP3      OH2             7.9444012922       -1.3298363765       -8.0776741586  W2        4663            0.0000000000
     13988      4663  TIP3      H1              8.1052712922       -0.5300863765       -8.5784141586  W2        4663            0.0000000000
     13989      4663  TIP3      H2              7.7471812922       -1.0232363765       -7.1926141586  W2        4663            0.0000000000
     13990      4664  TIP3      OH2             6.6788412922      -14.6319163765       -8.4619141586  W2        4664            0.0000000000
     13991      4664  TIP3      H1              6.5953212922      -13.7436063765       -8.1152741586  W2        4664            0.0000000000
     13992      4664  TIP3      H2              7.5688712922      -14.8972463765       -8.2302341586  W2        4664            0.0000000000
     13993      4665  TIP3      OH2            16.8776912922      -13.8828563765        3.9323558414  W2        4665            0.0000000000
     13994      4665  TIP3      H1             15.9612712922      -13.6206863765        3.8447258414  W2        4665            0.0000000000
     13995      4665  TIP3      H2             17.2131912922      -13.8859563765        3.0358858414  W2        4665            0.0000000000
     13996      4666  TIP3      OH2            15.4797912922      -10.1327563765       -1.9719141586  W2        4666            0.0000000000
     13997      4666  TIP3      H1             14.6822312922      -10.5477363765       -2.3004141586  W2        4666            0.0000000000
     13998      4666  TIP3      H2             15.9249012922      -10.8233863765       -1.4808641586  W2        4666            0.0000000000
     13999      4667  TIP3      OH2             4.9373712922       -4.2046963765       -9.4014641586  W2        4667            0.0000000000
     14000      4667  TIP3      H1              5.5295212922       -3.5052163765       -9.1252241586  W2        4667            0.0000000000
     14001      4667  TIP3      H2              5.3966712922       -4.6377463765      -10.1210041586  W2        4667            0.0000000000
     14002      4668  TIP3      OH2             3.2532912922      -11.5403963765      -10.2855241586  W2        4668            0.0000000000
     14003      4668  TIP3      H1              3.2085512922      -10.6010863765      -10.1068241586  W2        4668            0.0000000000
     14004      4668  TIP3      H2              2.3656112922      -11.7759063765      -10.5553141586  W2        4668            0.0000000000
     14005      4669  TIP3      OH2            16.5662512922       -0.8765063765       -0.3495641586  W2        4669            0.0000000000
     14006      4669  TIP3      H1             16.4106812922       -0.1980663765       -1.0066341586  W2        4669            0.0000000000
     14007      4669  TIP3      H2             17.4988912922       -0.8045763765       -0.1465041586  W2        4669            0.0000000000
     14008      4670  TIP3      OH2             4.0614912922      -16.7587363765       -1.6124241586  W2        4670            0.0000000000
     14009      4670  TIP3      H1              3.8324712922      -16.6994863765       -2.5399241586  W2        4670            0.0000000000
     14010      4670  TIP3      H2              3.6188312922      -17.5501863765       -1.3060141586  W2        4670            0.0000000000
     14011      4671  TIP3      OH2             2.9918212922       -2.8180263765       -5.4518441586  W2        4671            0.0000000000
     14012      4671  TIP3      H1              2.1596812922       -2.3457563765       -5.4247041586  W2        4671            0.0000000000
     14013      4671  TIP3      H2              3.5376512922       -2.3082663765       -6.0505341586  W2        4671            0.0000000000
     14014      4672  TIP3      OH2             2.2801912922       -0.2056563765        5.8779558414  W2        4672            0.0000000000
     14015      4672  TIP3      H1              2.8204112922       -0.4222563765        6.6378758414  W2        4672            0.0000000000
     14016      4672  TIP3      H2              1.7989912922       -1.0110563765        5.6882058414  W2        4672            0.0000000000
     14017      4673  TIP3      OH2             6.8775312922       -1.2862163765        7.4983758414  W2        4673            0.0000000000
     14018      4673  TIP3      H1              7.6452512922       -1.7451363765        7.8392958414  W2        4673            0.0000000000
     14019      4673  TIP3      H2              6.8561512922       -1.5122363765        6.5684958414  W2        4673            0.0000000000
     14020      4674  TIP3      OH2            10.9694912922       -1.7781563765      -11.1264441586  W2        4674            0.0000000000
     14021      4674  TIP3      H1             10.3255912922       -2.4092963765      -10.8050741586  W2        4674            0.0000000000
     14022      4674  TIP3      H2             11.7313212922       -2.3093563765      -11.3580941586  W2        4674            0.0000000000
     14023      4675  TIP3      OH2            13.4544012922       -2.9061063765        6.2275258414  W2        4675            0.0000000000
     14024      4675  TIP3      H1             13.1033512922       -3.7628063765        6.4705658414  W2        4675            0.0000000000
     14025      4675  TIP3      H2             14.1807212922       -2.7634363765        6.8344258414  W2        4675            0.0000000000
     14026      4676  TIP3      OH2            15.5737812922       -1.9611663765      -10.8926441586  W2        4676            0.0000000000
     14027      4676  TIP3      H1             15.8568212922       -2.7556463765      -10.4399541586  W2        4676            0.0000000000
     14028      4676  TIP3      H2             16.3135712922       -1.7280663765      -11.4535341586  W2        4676            0.0000000000
     14029      4677  TIP3      OH2             2.1871412922       -6.3952463765        6.8323858414  W2        4677            0.0000000000
     14030      4677  TIP3      H1              2.3311912922       -7.2971763765        6.5460558414  W2        4677            0.0000000000
     14031      4677  TIP3      H2              1.4148812922       -6.1090363765        6.3446158414  W2        4677            0.0000000000
     14032      4678  TIP3      OH2             6.5285112922       -6.0516763765      -11.0351541586  W2        4678            0.0000000000
     14033      4678  TIP3      H1              6.5929212922       -6.8457163765      -10.5045141586  W2        4678            0.0000000000
     14034      4678  TIP3      H2              7.1814312922       -6.1703963765      -11.7249541586  W2        4678            0.0000000000
     14035      4679  TIP3      OH2             8.8427512922       -6.4254363765        6.2650258414  W2        4679            0.0000000000
     14036      4679  TIP3      H1              8.5141312922       -6.1546263765        5.4077658414  W2        4679            0.0000000000
     14037      4679  TIP3      H2              8.9945712922       -7.3664563765        6.1775258414  W2        4679            0.0000000000
     14038      4680  TIP3      OH2            11.8808512922       -5.0045063765      -11.2993541586  W2        4680            0.0000000000
     14039      4680  TIP3      H1             11.6122612922       -4.8242963765      -10.3984641586  W2        4680            0.0000000000
     14040      4680  TIP3      H2             11.6744112922       -5.9298863765      -11.4307741586  W2        4680            0.0000000000
     14041      4681  TIP3      OH2            14.5772712922       -6.5097063765        3.6482558414  W2        4681            0.0000000000
     14042      4681  TIP3      H1             15.3227512922       -5.9213363765        3.5286558414  W2        4681            0.0000000000
     14043      4681  TIP3      H2             13.8199512922       -5.9277363765        3.7115658414  W2        4681            0.0000000000
     14044      4682  TIP3      OH2             3.0197912922       -9.1949163765        6.2523158414  W2        4682            0.0000000000
     14045      4682  TIP3      H1              3.4279112922      -10.0522563765        6.1313758414  W2        4682            0.0000000000
     14046      4682  TIP3      H2              2.7595512922       -9.1807863765        7.1733458414  W2        4682            0.0000000000
     14047      4683  TIP3      OH2             7.6778912922       -8.0790563765       -8.7293541586  W2        4683            0.0000000000
     14048      4683  TIP3      H1              7.2180912922       -8.5632263765       -8.0435041586  W2        4683            0.0000000000
     14049      4683  TIP3      H2              7.9327612922       -8.7475163765       -9.3653041586  W2        4683            0.0000000000
     14050      4684  TIP3      OH2             6.9668212922      -10.1863463765        3.6266058414  W2        4684            0.0000000000
     14051      4684  TIP3      H1              6.3484312922       -9.5116863765        3.9070758414  W2        4684            0.0000000000
     14052      4684  TIP3      H2              7.3109412922       -9.8649563765        2.7932258414  W2        4684            0.0000000000
     14053      4685  TIP3      OH2             8.7489312922       -9.8358763765      -10.4670341586  W2        4685            0.0000000000
     14054      4685  TIP3      H1              8.5684312922       -9.9907563765      -11.3942041586  W2        4685            0.0000000000
     14055      4685  TIP3      H2              9.6989812922       -9.7280063765      -10.4222441586  W2        4685            0.0000000000
     14056      4686  TIP3      OH2            11.9866412922       -7.7148163765        6.9040858414  W2        4686            0.0000000000
     14057      4686  TIP3      H1             12.9397612922       -7.6309063765        6.8766858414  W2        4686            0.0000000000
     14058      4686  TIP3      H2             11.8261012922       -8.4266363765        7.5235758414  W2        4686            0.0000000000
     14059      4687  TIP3      OH2            18.1387612922       -7.4814563765      -11.0212241586  W2        4687            0.0000000000
     14060      4687  TIP3      H1             17.8652412922       -7.9059063765      -11.8343941586  W2        4687            0.0000000000
     14061      4687  TIP3      H2             18.1781712922       -6.5500063765      -11.2381841586  W2        4687            0.0000000000
     14062      4688  TIP3      OH2             7.3061912922      -12.8312663765        4.7089158414  W2        4688            0.0000000000
     14063      4688  TIP3      H1              7.4562812922      -13.5601363765        4.1068858414  W2        4688            0.0000000000
     14064      4688  TIP3      H2              7.3084312922      -12.0540963765        4.1501358414  W2        4688            0.0000000000
     14065      4689  TIP3      OH2             7.7187612922      -14.4616863765        2.2016558414  W2        4689            0.0000000000
     14066      4689  TIP3      H1              8.2545112922      -14.0100163765        1.5495858414  W2        4689            0.0000000000
     14067      4689  TIP3      H2              6.8667212922      -14.5697063765        1.7790658414  W2        4689            0.0000000000
     14068      4690  TIP3      OH2             9.3006012922       -9.0220663765        2.4411758414  W2        4690            0.0000000000
     14069      4690  TIP3      H1             10.0510812922       -9.1783163765        1.8679558414  W2        4690            0.0000000000
     14070      4690  TIP3      H2              8.9614312922       -8.1704063765        2.1657258414  W2        4690            0.0000000000
     14071      4691  TIP3      OH2            13.7162212922      -11.2068863765        7.4697058414  W2        4691            0.0000000000
     14072      4691  TIP3      H1             13.9083512922      -12.1379463765        7.3581558414  W2        4691            0.0000000000
     14073      4691  TIP3      H2             14.5738512922      -10.7819363765        7.4592458414  W2        4691            0.0000000000
     14074      4692  TIP3      OH2            15.0329412922       -8.4183663765        5.5469758414  W2        4692            0.0000000000
     14075      4692  TIP3      H1             14.7514412922       -7.7089063765        4.9693558414  W2        4692            0.0000000000
     14076      4692  TIP3      H2             15.9753712922       -8.4910663765        5.3960958414  W2        4692            0.0000000000
     14077      4693  TIP3      OH2             5.7848212922      -11.6329163765        6.6204758414  W2        4693            0.0000000000
     14078      4693  TIP3      H1              5.0177212922      -12.1654363765        6.4102358414  W2        4693            0.0000000000
     14079      4693  TIP3      H2              6.4637212922      -11.9428763765        6.0211058414  W2        4693            0.0000000000
     14080      4694  TIP3      OH2             8.5243112922      -17.0051163765        2.6330158414  W2        4694            0.0000000000
     14081      4694  TIP3      H1              8.4262712922      -16.0587963765        2.5276358414  W2        4694            0.0000000000
     14082      4694  TIP3      H2              7.7819312922      -17.3777363765        2.1573658414  W2        4694            0.0000000000
     14083      4695  TIP3      OH2             9.7883612922      -12.6835763765        6.1968558414  W2        4695            0.0000000000
     14084      4695  TIP3      H1              9.5529012922      -12.9029063765        7.0983458414  W2        4695            0.0000000000
     14085      4695  TIP3      H2              9.0050512922      -12.8904563765        5.6871058414  W2        4695            0.0000000000
     14086      4696  TIP3      OH2            12.5040212922      -13.5562263765        5.2722058414  W2        4696            0.0000000000
     14087      4696  TIP3      H1             11.5565612922      -13.5242563765        5.4045358414  W2        4696            0.0000000000
     14088      4696  TIP3      H2             12.8166912922      -14.1815163765        5.9260258414  W2        4696            0.0000000000
     14089      4697  TIP3      OH2            14.1381712922      -14.9221163765        7.2773958414  W2        4697            0.0000000000
     14090      4697  TIP3      H1             14.0413512922      -15.8743863765        7.2715858414  W2        4697            0.0000000000
     14091      4697  TIP3      H2             13.8164812922      -14.6534363765        8.1379458414  W2        4697            0.0000000000
     14092      4698  TIP3      OH2             3.9651012922      -13.7125363765        6.3249458414  W2        4698            0.0000000000
     14093      4698  TIP3      H1              4.1768412922      -14.4189263765        5.7146958414  W2        4698            0.0000000000
     14094      4698  TIP3      H2              3.8538512922      -14.1499363765        7.1690658414  W2        4698            0.0000000000
     14095      4699  TIP3      OH2             8.7461212922      -17.7113763765        5.3042958414  W2        4699            0.0000000000
     14096      4699  TIP3      H1              9.4579612922      -18.3511563765        5.2902058414  W2        4699            0.0000000000
     14097      4699  TIP3      H2              8.6451612922      -17.4445463765        4.3906058414  W2        4699            0.0000000000
     14098      4700  TIP3      OH2             9.0998712922      -16.0285363765        7.3579258414  W2        4700            0.0000000000
     14099      4700  TIP3      H1              8.9680912922      -16.5041563765        6.5377758414  W2        4700            0.0000000000
     14100      4700  TIP3      H2              8.5006112922      -15.2841763765        7.3026358414  W2        4700            0.0000000000
     14101      4701  TIP3      OH2             8.6461012922        0.8544936235       -9.4656741586  W2        4701            0.0000000000
     14102      4701  TIP3      H1              9.5791712922        1.0123636235       -9.3218341586  W2        4701            0.0000000000
     14103      4701  TIP3      H2              8.3819812922        1.5297936235      -10.0905241586  W2        4701            0.0000000000
     14104      4702  TIP3      OH2             2.2145912922       -4.5091263765       -9.9828641586  W2        4702            0.0000000000
     14105      4702  TIP3      H1              3.1285112922       -4.4302363765       -9.7094741586  W2        4702            0.0000000000
     14106      4702  TIP3      H2              2.2219012922       -5.1961663765      -10.6493041586  W2        4702            0.0000000000
     14107      4703  TIP3      OH2             0.8636512922        0.8837236235       -4.9054741586  W2        4703            0.0000000000
     14108      4703  TIP3      H1              0.2163612922        0.4218936235       -5.4383541586  W2        4703            0.0000000000
     14109      4703  TIP3      H2              1.2181112922        0.2120536235       -4.3228541586  W2        4703            0.0000000000
     14110      4704  TIP3      OH2             1.7335712922       -1.0355763765       -3.1008541586  W2        4704            0.0000000000
     14111      4704  TIP3      H1              1.3992512922       -1.9158463765       -2.9288341586  W2        4704            0.0000000000
     14112      4704  TIP3      H2              1.9558112922       -0.6900763765       -2.2362941586  W2        4704            0.0000000000
     14113      4705  TIP3      OH2            19.2820512922       -0.2259363765       -0.1203741586  W2        4705            0.0000000000
     14114      4705  TIP3      H1             19.2607212922       -0.0410963765        0.8185658414  W2        4705            0.0000000000
     14115      4705  TIP3      H2             19.9726712922        0.3424636235       -0.4612341586  W2        4705            0.0000000000
     14116      4706  TIP3      OH2            18.8453412922       -0.6588263765        2.8015358414  W2        4706            0.0000000000
     14117      4706  TIP3      H1             18.3582112922       -1.3944163765        2.4302758414  W2        4706            0.0000000000
     14118      4706  TIP3      H2             19.3946112922       -1.0524363765        3.4794758414  W2        4706            0.0000000000
     14119      4707  TIP3      OH2            17.2960712922       -4.8690163765        7.4395658414  W2        4707            0.0000000000
     14120      4707  TIP3      H1             16.4301812922       -4.9740463765        7.8337958414  W2        4707            0.0000000000
     14121      4707  TIP3      H2             17.6726612922       -4.1106863765        7.8860358414  W2        4707            0.0000000000
     14122      4708  TIP3      OH2            18.5970412922       -6.6126463765       -7.0461841586  W2        4708            0.0000000000
     14123      4708  TIP3      H1             19.4471812922       -6.1915563765       -6.9190241586  W2        4708            0.0000000000
     14124      4708  TIP3      H2             18.6025512922       -7.3526363765       -6.4390441586  W2        4708            0.0000000000
     14125      4709  TIP3      OH2            18.9916012922       -8.5589063765       -5.2226141586  W2        4709            0.0000000000
     14126      4709  TIP3      H1             18.2650612922       -9.0386463765       -4.8248541586  W2        4709            0.0000000000
     14127      4709  TIP3      H2             19.5729312922       -8.3534363765       -4.4904541586  W2        4709            0.0000000000
     14128      4710  TIP3      OH2            18.7507212922       -5.7741563765       -0.2748541586  W2        4710            0.0000000000
     14129      4710  TIP3      H1             19.5841412922       -6.1521563765       -0.5554941586  W2        4710            0.0000000000
     14130      4710  TIP3      H2             18.8627512922       -4.8310363765       -0.3939441586  W2        4710            0.0000000000
     14131      4711  TIP3      OH2            17.2369512922       -2.8964063765        2.0319858414  W2        4711            0.0000000000
     14132      4711  TIP3      H1             16.5894812922       -2.5712563765        2.6575058414  W2        4711            0.0000000000
     14133      4711  TIP3      H2             16.7193512922       -3.3366363765        1.3578158414  W2        4711            0.0000000000
     14134      4712  TIP3      OH2            19.2599112922       -8.6580563765       -8.8314841586  W2        4712            0.0000000000
     14135      4712  TIP3      H1             18.7380212922       -8.3016463765       -9.5503941586  W2        4712            0.0000000000
     14136      4712  TIP3      H2             19.2268312922       -7.9832763765       -8.1533941586  W2        4712            0.0000000000
     14137      4713  TIP3      OH2            17.6088112922      -11.4184963765      -10.2807741586  W2        4713            0.0000000000
     14138      4713  TIP3      H1             17.7052512922      -10.7517963765      -10.9608041586  W2        4713            0.0000000000
     14139      4713  TIP3      H2             17.4687712922      -12.2338663765      -10.7622241586  W2        4713            0.0000000000
     14140      4714  TIP3      OH2            16.7782812922      -10.0382563765       -4.6597441586  W2        4714            0.0000000000
     14141      4714  TIP3      H1             16.6281612922      -10.9833963765       -4.6799641586  W2        4714            0.0000000000
     14142      4714  TIP3      H2             16.4247312922       -9.7571163765       -3.8158341586  W2        4714            0.0000000000
     14143      4715  TIP3      OH2             1.8135212922       -7.9600363765       -0.6493641586  W2        4715            0.0000000000
     14144      4715  TIP3      H1              1.9978112922       -8.0418663765       -1.5850741586  W2        4715            0.0000000000
     14145      4715  TIP3      H2              2.6628112922       -8.0843363765       -0.2257241586  W2        4715            0.0000000000
     14146      4716  TIP3      OH2            17.6345712922       -8.0679263765        4.9790858414  W2        4716            0.0000000000
     14147      4716  TIP3      H1             18.2173012922       -8.8026963765        5.1708058414  W2        4716            0.0000000000
     14148      4716  TIP3      H2             18.1985012922       -7.2958963765        5.0256658414  W2        4716            0.0000000000
     14149      4717  TIP3      OH2            19.1312812922      -10.1653463765        5.6636258414  W2        4717            0.0000000000
     14150      4717  TIP3      H1             18.2679512922      -10.5441363765        5.4980958414  W2        4717            0.0000000000
     14151      4717  TIP3      H2             19.7356512922      -10.9038663765        5.5892058414  W2        4717            0.0000000000
     14152      4718  TIP3      OH2            16.8561912922      -14.0105163765      -11.1632241586  W2        4718            0.0000000000
     14153      4718  TIP3      H1             17.4667712922      -14.3818363765      -10.5264041586  W2        4718            0.0000000000
     14154      4718  TIP3      H2             16.0193412922      -14.4318263765      -10.9672241586  W2        4718            0.0000000000
     14155      4719  TIP3      OH2            16.4887612922      -12.4556763765       -6.1972341586  W2        4719            0.0000000000
     14156      4719  TIP3      H1             16.7684712922      -13.3626363765       -6.0730641586  W2        4719            0.0000000000
     14157      4719  TIP3      H2             17.2479312922      -12.0215263765       -6.5863141586  W2        4719            0.0000000000
     14158      4720  TIP3      OH2            17.1005912922      -11.8739363765       -0.7613441586  W2        4720            0.0000000000
     14159      4720  TIP3      H1             18.0333912922      -11.6619463765       -0.7957441586  W2        4720            0.0000000000
     14160      4720  TIP3      H2             16.8653412922      -11.7727263765        0.1609558414  W2        4720            0.0000000000
     14161      4721  TIP3      OH2            17.1297812922      -11.1374063765        2.0145958414  W2        4721            0.0000000000
     14162      4721  TIP3      H1             16.2869112922      -10.8693663765        2.3805758414  W2        4721            0.0000000000
     14163      4721  TIP3      H2             17.5722112922      -10.3152163765        1.8037058414  W2        4721            0.0000000000
     14164      4722  TIP3      OH2             1.4110012922      -12.6895363765        5.4915158414  W2        4722            0.0000000000
     14165      4722  TIP3      H1              2.3304912922      -12.8117063765        5.7278258414  W2        4722            0.0000000000
     14166      4722  TIP3      H2              0.9614512922      -13.4395663765        5.8808658414  W2        4722            0.0000000000
     14167      4723  TIP3      OH2            19.4129412922      -17.1573863765        7.3680958414  W2        4723            0.0000000000
     14168      4723  TIP3      H1             19.7626412922      -17.8110363765        6.7625658414  W2        4723            0.0000000000
     14169      4723  TIP3      H2             19.5598912922      -16.3199763765        6.9283558414  W2        4723            0.0000000000
     14170      4724  TIP3      OH2            17.1022412922      -15.1927463765       -6.1490341586  W2        4724            0.0000000000
     14171      4724  TIP3      H1             17.2847412922      -15.6415963765       -5.3235341586  W2        4724            0.0000000000
     14172      4724  TIP3      H2             16.5025312922      -15.7773063765       -6.6125741586  W2        4724            0.0000000000
     14173      4725  TIP3      OH2             2.6322512922      -14.3773763765       -1.6171941586  W2        4725            0.0000000000
     14174      4725  TIP3      H1              3.0774112922      -15.1691263765       -1.3152241586  W2        4725            0.0000000000
     14175      4725  TIP3      H2              3.0985512922      -13.6608563765       -1.1866341586  W2        4725            0.0000000000
     14176      4726  TIP3      OH2             0.9362812922      -11.3780763765       -0.5481741586  W2        4726            0.0000000000
     14177      4726  TIP3      H1              1.4282612922      -11.5990263765       -1.3389741586  W2        4726            0.0000000000
     14178      4726  TIP3      H2              1.2983712922      -10.5377363765       -0.2672241586  W2        4726            0.0000000000
     14179      4727  TIP3      OH2            18.9326612922      -15.0479263765        5.7172258414  W2        4727            0.0000000000
     14180      4727  TIP3      H1             18.0152312922      -14.7772163765        5.6815758414  W2        4727            0.0000000000
     14181      4727  TIP3      H2             19.0556012922      -15.5830863765        4.9331958414  W2        4727            0.0000000000
     14182      4728  TIP3      OH2            18.9688612922      -15.1249363765       -9.6210041586  W2        4728            0.0000000000
     14183      4728  TIP3      H1             19.3811212922      -15.8463663765      -10.0962041586  W2        4728            0.0000000000
     14184      4728  TIP3      H2             19.6505112922      -14.4554763765       -9.5625741586  W2        4728            0.0000000000
     14185      4729  TIP3      OH2             1.2499312922      -15.1201663765       -6.4939341586  W2        4729            0.0000000000
     14186      4729  TIP3      H1              0.3247712922      -14.9115063765       -6.6233841586  W2        4729            0.0000000000
     14187      4729  TIP3      H2              1.7039212922      -14.6360863765       -7.1837041586  W2        4729            0.0000000000
     14188      4730  TIP3      OH2            16.0206512922       -0.1359963765       -4.5481941586  W2        4730            0.0000000000
     14189      4730  TIP3      H1             16.6729412922       -0.4837863765       -5.1562841586  W2        4730            0.0000000000
     14190      4730  TIP3      H2             16.5310312922        0.3523236235       -3.9022241586  W2        4730            0.0000000000
     14191      4731  TIP3      OH2             1.2134712922      -16.3822663765        1.8503158414  W2        4731            0.0000000000
     14192      4731  TIP3      H1              0.5485212922      -16.6282363765        2.4934058414  W2        4731            0.0000000000
     14193      4731  TIP3      H2              0.7706012922      -15.7602263765        1.2731158414  W2        4731            0.0000000000
     14194      4732  TIP3      OH2             3.4054012922       -3.2068563765        5.9948958414  W2        4732            0.0000000000
     14195      4732  TIP3      H1              2.5846512922       -3.0322063765        5.5343658414  W2        4732            0.0000000000
     14196      4732  TIP3      H2              3.1531812922       -3.2803863765        6.9153358414  W2        4732            0.0000000000
     14197      4733  TIP3      OH2             6.3596912922       -2.2327363765        2.2532958414  W2        4733            0.0000000000
     14198      4733  TIP3      H1              5.9348012922       -1.4228863765        1.9707558414  W2        4733            0.0000000000
     14199      4733  TIP3      H2              7.2639712922       -2.1473263765        1.9512758414  W2        4733            0.0000000000
     14200      4734  TIP3      OH2            10.6708312922       -0.8337363765        5.2126658414  W2        4734            0.0000000000
     14201      4734  TIP3      H1             10.8555812922       -1.1671263765        6.0906958414  W2        4734            0.0000000000
     14202      4734  TIP3      H2             11.5172812922       -0.5238763765        4.8905858414  W2        4734            0.0000000000
     14203      4735  TIP3      OH2            13.0158712922        0.4521536235        4.4568058414  W2        4735            0.0000000000
     14204      4735  TIP3      H1             13.6927612922       -0.1806163765        4.2167258414  W2        4735            0.0000000000
     14205      4735  TIP3      H2             13.3377512922        0.8532036235        5.2641358414  W2        4735            0.0000000000
     14206      4736  TIP3      OH2            17.9332512922      -16.9582963765        3.5363058414  W2        4736            0.0000000000
     14207      4736  TIP3      H1             17.1206012922      -16.6332663765        3.1487758414  W2        4736            0.0000000000
     14208      4736  TIP3      H2             18.1661012922      -17.7184463765        3.0032158414  W2        4736            0.0000000000
     14209      4737  TIP3      OH2             3.7613612922        1.0236536235        2.3008258414  W2        4737            0.0000000000
     14210      4737  TIP3      H1              3.0410012922        1.4637536235        1.8495958414  W2        4737            0.0000000000
     14211      4737  TIP3      H2              3.3957612922        0.7731236235        3.1492258414  W2        4737            0.0000000000
     14212      4738  TIP3      OH2             6.2286212922        0.6240436235        1.3305458414  W2        4738            0.0000000000
     14213      4738  TIP3      H1              5.3638412922        0.6958936235        1.7345558414  W2        4738            0.0000000000
     14214      4738  TIP3      H2              6.1735212922        1.1707736235        0.5467958414  W2        4738            0.0000000000
     14215      4739  TIP3      OH2            10.9391812922        0.5119336235        0.5061458414  W2        4739            0.0000000000
     14216      4739  TIP3      H1             10.4825812922        1.0409036235       -0.1480141586  W2        4739            0.0000000000
     14217      4739  TIP3      H2             11.1019812922        1.1150736235        1.2313758414  W2        4739            0.0000000000
     14218      4740  TIP3      OH2            13.2668112922       -0.6101063765        1.4511758414  W2        4740            0.0000000000
     14219      4740  TIP3      H1             12.3621812922       -0.4450863765        1.1853858414  W2        4740            0.0000000000
     14220      4740  TIP3      H2             13.6956712922        0.2431136235        1.3855158414  W2        4740            0.0000000000
     14221      4741  TIP3      OH2            15.8710012922        0.9598036235        1.7459558414  W2        4741            0.0000000000
     14222      4741  TIP3      H1             15.6892012922        1.8756936235        1.5354458414  W2        4741            0.0000000000
     14223      4741  TIP3      H2             16.0477812922        0.5495136235        0.8994158414  W2        4741            0.0000000000
     14224      4742  TIP3      OH2             3.1761712922       -0.3530963765       -0.7889941586  W2        4742            0.0000000000
     14225      4742  TIP3      H1              3.1577712922       -0.7785863765        0.0682358414  W2        4742            0.0000000000
     14226      4742  TIP3      H2              3.9809612922       -0.6715963765       -1.1977741586  W2        4742            0.0000000000
     14227      4743  TIP3      OH2             5.3174812922       -1.6432263765       -2.1340041586  W2        4743            0.0000000000
     14228      4743  TIP3      H1              5.0985512922       -2.5594863765       -1.9644041586  W2        4743            0.0000000000
     14229      4743  TIP3      H2              6.1417012922       -1.5031863765       -1.6678641586  W2        4743            0.0000000000
     14230      4744  TIP3      OH2             7.8547312922       -1.1732963765       -1.2852041586  W2        4744            0.0000000000
     14231      4744  TIP3      H1              8.0673012922       -2.0613963765       -1.5721141586  W2        4744            0.0000000000
     14232      4744  TIP3      H2              7.9192412922       -1.2075263765       -0.3308041586  W2        4744            0.0000000000
     14233      4745  TIP3      OH2            11.3631012922      -15.5092363765       -2.1408741586  W2        4745            0.0000000000
     14234      4745  TIP3      H1             10.6887812922      -16.1386763765       -1.8852941586  W2        4745            0.0000000000
     14235      4745  TIP3      H2             11.9270212922      -15.9933463765       -2.7440841586  W2        4745            0.0000000000
     14236      4746  TIP3      OH2            16.5058212922      -17.4018363765       -2.0281641586  W2        4746            0.0000000000
     14237      4746  TIP3      H1             17.1095812922      -16.8542963765       -2.5300641586  W2        4746            0.0000000000
     14238      4746  TIP3      H2             15.6360212922      -17.0827963765       -2.2687541586  W2        4746            0.0000000000
     14239      4747  TIP3      OH2            18.2328612922      -16.2629663765       -3.6950741586  W2        4747            0.0000000000
     14240      4747  TIP3      H1             18.8446112922      -16.7773963765       -4.2217141586  W2        4747            0.0000000000
     14241      4747  TIP3      H2             18.6152012922      -15.3857563765       -3.6716341586  W2        4747            0.0000000000
     14242      4748  TIP3      OH2             3.6898512922      -16.8752063765       -4.3188841586  W2        4748            0.0000000000
     14243      4748  TIP3      H1              2.9128312922      -17.1097163765       -4.8262941586  W2        4748            0.0000000000
     14244      4748  TIP3      H2              4.2202112922      -17.6719963765       -4.3100841586  W2        4748            0.0000000000
     14245      4749  TIP3      OH2             2.5261912922      -17.0773963765       -8.5152741586  W2        4749            0.0000000000
     14246      4749  TIP3      H1              2.9652612922      -16.4663463765       -9.1069241586  W2        4749            0.0000000000
     14247      4749  TIP3      H2              1.8924312922      -16.5389863765       -8.0412741586  W2        4749            0.0000000000
     14248      4750  TIP3      OH2             8.2691112922      -16.9484963765       -4.5055741586  W2        4750            0.0000000000
     14249      4750  TIP3      H1              9.1434512922      -16.5600663765       -4.5351441586  W2        4750            0.0000000000
     14250      4750  TIP3      H2              8.1331912922      -17.1637163765       -3.5828541586  W2        4750            0.0000000000
     14251      4751  TIP3      OH2            13.8259512922      -16.9185163765       -2.8564041586  W2        4751            0.0000000000
     14252      4751  TIP3      H1             13.9021112922      -16.8233563765       -3.8058041586  W2        4751            0.0000000000
     14253      4751  TIP3      H2             13.5508712922      -17.8262263765       -2.7274941586  W2        4751            0.0000000000
     14254      4752  TIP3      OH2            15.1792112922      -16.8927363765       -7.1639041586  W2        4752            0.0000000000
     14255      4752  TIP3      H1             14.4763212922      -16.2778163765       -7.3737641586  W2        4752            0.0000000000
     14256      4752  TIP3      H2             14.7343512922      -17.7300663765       -7.0328141586  W2        4752            0.0000000000
     14257      4753  TIP3      OH2             2.4271412922       -1.1291763765       -7.6177641586  W2        4753            0.0000000000
     14258      4753  TIP3      H1              1.7421312922       -1.1672863765       -8.2852541586  W2        4753            0.0000000000
     14259      4753  TIP3      H2              2.4308612922       -0.2164163765       -7.3295541586  W2        4753            0.0000000000
     14260      4754  TIP3      OH2             4.3871012922      -15.1612463765      -10.0728641586  W2        4754            0.0000000000
     14261      4754  TIP3      H1              4.8784412922      -15.7910063765      -10.6003141586  W2        4754            0.0000000000
     14262      4754  TIP3      H2              5.0107312922      -14.8653063765       -9.4097441586  W2        4754            0.0000000000
     14263      4755  TIP3      OH2             9.4131112922      -14.8680963765       -7.6158141586  W2        4755            0.0000000000
     14264      4755  TIP3      H1              9.5912412922      -15.5147763765       -6.9329541586  W2        4755            0.0000000000
     14265      4755  TIP3      H2              9.3597312922      -14.0343263765       -7.1487041586  W2        4755            0.0000000000
     14266      4756  TIP3      OH2            11.2914912922        0.0803136235       -9.2201441586  W2        4756            0.0000000000
     14267      4756  TIP3      H1             12.1575112922        0.4470536235       -9.3983241586  W2        4756            0.0000000000
     14268      4756  TIP3      H2             11.0447712922       -0.3588863765      -10.0340641586  W2        4756            0.0000000000
     14269      4757  TIP3      OH2            18.0004512922       -0.3566563765       -6.5410341586  W2        4757            0.0000000000
     14270      4757  TIP3      H1             17.8061612922       -1.1044463765       -7.1060741586  W2        4757            0.0000000000
     14271      4757  TIP3      H2             17.9614612922        0.4013536235       -7.1242441586  W2        4757            0.0000000000
     14272      4758  TIP3      OH2             3.6476512922      -16.3610163765        5.1987358414  W2        4758            0.0000000000
     14273      4758  TIP3      H1              3.2814712922      -17.1267563765        5.6412058414  W2        4758            0.0000000000
     14274      4758  TIP3      H2              4.5605012922      -16.3319963765        5.4852458414  W2        4758            0.0000000000
     14275      4759  TIP3      OH2             5.6207312922      -17.0105763765        6.7344458414  W2        4759            0.0000000000
     14276      4759  TIP3      H1              6.5190912922      -17.2845563765        6.5497858414  W2        4759            0.0000000000
     14277      4759  TIP3      H2              5.2340412922      -17.7529763765        7.1987058414  W2        4759            0.0000000000
     14278      4760  TIP3      OH2             4.2452612922       -0.2090963765      -10.5925541586  W2        4760            0.0000000000
     14279      4760  TIP3      H1              3.9777212922        0.0771936235       -9.7192441586  W2        4760            0.0000000000
     14280      4760  TIP3      H2              5.0165212922       -0.7551763765      -10.4403041586  W2        4760            0.0000000000
     14281      4761  TIP3      OH2            14.0419612922      -17.6780463765        6.9167258414  W2        4761            0.0000000000
     14282      4761  TIP3      H1             14.1186812922      -18.1039763765        7.7704958414  W2        4761            0.0000000000
     14283      4761  TIP3      H2             14.9356212922      -17.6645763765        6.5740758414  W2        4761            0.0000000000
     14284      4762  TIP3      OH2            17.2180712922       -1.6054163765        5.6091458414  W2        4762            0.0000000000
     14285      4762  TIP3      H1             16.4362612922       -1.7916163765        5.0892058414  W2        4762            0.0000000000
     14286      4762  TIP3      H2             17.1460612922       -0.6759863765        5.8263958414  W2        4762            0.0000000000
     14287      4763  TIP3      OH2            31.6241112922       -7.7189763765       -4.3601341586  W2        4763            0.0000000000
     14288      4763  TIP3      H1             31.7132212922       -6.7751563765       -4.4924241586  W2        4763            0.0000000000
     14289      4763  TIP3      H2             30.9858712922       -7.9943363765       -5.0181941586  W2        4763            0.0000000000
     14290      4764  TIP3      OH2            30.5572412922       -8.4639063765       -0.9413141586  W2        4764            0.0000000000
     14291      4764  TIP3      H1             30.5189912922       -9.1102763765       -0.2363541586  W2        4764            0.0000000000
     14292      4764  TIP3      H2             30.2348912922       -8.9304663765       -1.7124441586  W2        4764            0.0000000000
     14293      4765  TIP3      OH2            22.9257412922       -8.8496963765        0.6516758414  W2        4765            0.0000000000
     14294      4765  TIP3      H1             22.9669512922       -9.4753663765        1.3749158414  W2        4765            0.0000000000
     14295      4765  TIP3      H2             23.6285112922       -8.2258363765        0.8337158414  W2        4765            0.0000000000
     14296      4766  TIP3      OH2            34.2632612922       -5.5248663765       -2.6398041586  W2        4766            0.0000000000
     14297      4766  TIP3      H1             33.8225312922       -6.2452663765       -2.1892441586  W2        4766            0.0000000000
     14298      4766  TIP3      H2             34.2502312922       -4.8041463765       -2.0100341586  W2        4766            0.0000000000
     14299      4767  TIP3      OH2            23.8490512922       -4.3998063765       -0.8134141586  W2        4767            0.0000000000
     14300      4767  TIP3      H1             23.4795712922       -5.2017563765       -1.1829841586  W2        4767            0.0000000000
     14301      4767  TIP3      H2             24.7901612922       -4.5683163765       -0.7670741586  W2        4767            0.0000000000
     14302      4768  TIP3      OH2            20.4591012922      -10.7395463765       -5.4205341586  W2        4768            0.0000000000
     14303      4768  TIP3      H1             20.0114412922       -9.8936763765       -5.4388841586  W2        4768            0.0000000000
     14304      4768  TIP3      H2             19.8982212922      -11.3191263765       -5.9360241586  W2        4768            0.0000000000
     14305      4769  TIP3      OH2            21.1697112922       -8.5775863765       -3.2947341586  W2        4769            0.0000000000
     14306      4769  TIP3      H1             21.3830612922       -9.3474263765       -2.7674341586  W2        4769            0.0000000000
     14307      4769  TIP3      H2             21.9074712922       -8.4879163765       -3.8979741586  W2        4769            0.0000000000
     14308      4770  TIP3      OH2            31.3748112922       -0.4206963765       -2.4277641586  W2        4770            0.0000000000
     14309      4770  TIP3      H1             31.9944512922       -1.0972263765       -2.7008441586  W2        4770            0.0000000000
     14310      4770  TIP3      H2             31.1665512922       -0.6386163765       -1.5192741586  W2        4770            0.0000000000
     14311      4771  TIP3      OH2            28.9466812922       -6.0317663765       -0.5352141586  W2        4771            0.0000000000
     14312      4771  TIP3      H1             29.2504712922       -6.7176263765       -1.1298041586  W2        4771            0.0000000000
     14313      4771  TIP3      H2             29.6680812922       -5.9128963765        0.0825858414  W2        4771            0.0000000000
     14314      4772  TIP3      OH2            32.0873812922      -11.6375263765       -0.2077341586  W2        4772            0.0000000000
     14315      4772  TIP3      H1             32.2299712922      -12.5838263765       -0.1875741586  W2        4772            0.0000000000
     14316      4772  TIP3      H2             31.9812812922      -11.4305463765       -1.1362441586  W2        4772            0.0000000000
     14317      4773  TIP3      OH2            25.2422112922      -13.5358863765       -2.9352541586  W2        4773            0.0000000000
     14318      4773  TIP3      H1             25.2853212922      -12.6760363765       -3.3536241586  W2        4773            0.0000000000
     14319      4773  TIP3      H2             24.7846212922      -14.0884163765       -3.5689341586  W2        4773            0.0000000000
     14320      4774  TIP3      OH2            32.9644812922      -13.4053263765       -4.5344241586  W2        4774            0.0000000000
     14321      4774  TIP3      H1             33.6109112922      -13.7340063765       -3.9096641586  W2        4774            0.0000000000
     14322      4774  TIP3      H2             33.4744212922      -12.8874263765       -5.1572841586  W2        4774            0.0000000000
     14323      4775  TIP3      OH2            21.8623612922      -11.1393063765       -2.1731141586  W2        4775            0.0000000000
     14324      4775  TIP3      H1             22.5160212922      -11.6891363765       -1.7411041586  W2        4775            0.0000000000
     14325      4775  TIP3      H2             21.8862912922      -11.4134063765       -3.0899141586  W2        4775            0.0000000000
     14326      4776  TIP3      OH2            27.0188112922       -9.5891763765       -2.9579641586  W2        4776            0.0000000000
     14327      4776  TIP3      H1             27.6349112922      -10.1156363765       -2.4485641586  W2        4776            0.0000000000
     14328      4776  TIP3      H2             26.4326912922      -10.2293063765       -3.3616041586  W2        4776            0.0000000000
     14329      4777  TIP3      OH2            24.0524012922      -14.6180463765        1.1388258414  W2        4777            0.0000000000
     14330      4777  TIP3      H1             23.8335712922      -14.0879863765        0.3724258414  W2        4777            0.0000000000
     14331      4777  TIP3      H2             23.3844912922      -14.3914963765        1.7859658414  W2        4777            0.0000000000
     14332      4778  TIP3      OH2            31.4213812922       -5.1179363765       -5.3172641586  W2        4778            0.0000000000
     14333      4778  TIP3      H1             31.1258912922       -5.4407063765       -6.1685741586  W2        4778            0.0000000000
     14334      4778  TIP3      H2             31.0971612922       -4.2182663765       -5.2760041586  W2        4778            0.0000000000
     14335      4779  TIP3      OH2            26.6215412922       -6.9424763765        1.4261958414  W2        4779            0.0000000000
     14336      4779  TIP3      H1             25.8814512922       -6.3443263765        1.5297158414  W2        4779            0.0000000000
     14337      4779  TIP3      H2             27.3354912922       -6.3885163765        1.1105558414  W2        4779            0.0000000000
     14338      4780  TIP3      OH2            34.7283212922      -14.1143963765       -2.5538341586  W2        4780            0.0000000000
     14339      4780  TIP3      H1             34.5131212922      -14.8800563765       -2.0212341586  W2        4780            0.0000000000
     14340      4780  TIP3      H2             35.3840612922      -13.6419363765       -2.0409841586  W2        4780            0.0000000000
     14341      4781  TIP3      OH2            23.6461312922      -12.7258663765       -0.9089541586  W2        4781            0.0000000000
     14342      4781  TIP3      H1             24.2597612922      -12.0931063765       -0.5357141586  W2        4781            0.0000000000
     14343      4781  TIP3      H2             24.1582012922      -13.1983663765       -1.5652641586  W2        4781            0.0000000000
     14344      4782  TIP3      OH2            25.0289712922       -4.9781763765        2.2133458414  W2        4782            0.0000000000
     14345      4782  TIP3      H1             25.0237312922       -4.0988263765        1.8352758414  W2        4782            0.0000000000
     14346      4782  TIP3      H2             24.1753812922       -5.0617663765        2.6383358414  W2        4782            0.0000000000
     14347      4783  TIP3      OH2            21.1500612922       -5.3073863765       -7.0047241586  W2        4783            0.0000000000
     14348      4783  TIP3      H1             20.8781512922       -5.0782863765       -7.8934341586  W2        4783            0.0000000000
     14349      4783  TIP3      H2             21.1956312922       -4.4695063765       -6.5441941586  W2        4783            0.0000000000
     14350      4784  TIP3      OH2            34.7750312922       -3.6857963765       -0.2918741586  W2        4784            0.0000000000
     14351      4784  TIP3      H1             33.8334012922       -3.6274063765       -0.1301841586  W2        4784            0.0000000000
     14352      4784  TIP3      H2             35.0516412922       -2.7797463765       -0.4289041586  W2        4784            0.0000000000
     14353      4785  TIP3      OH2            35.0757312922      -15.3992663765        1.1255158414  W2        4785            0.0000000000
     14354      4785  TIP3      H1             34.3396512922      -14.7885563765        1.0876458414  W2        4785            0.0000000000
     14355      4785  TIP3      H2             35.7591312922      -14.9843663765        0.5991558414  W2        4785            0.0000000000
     14356      4786  TIP3      OH2            28.0788712922      -17.3125363765       -1.4086841586  W2        4786            0.0000000000
     14357      4786  TIP3      H1             27.9612912922      -18.2609363765       -1.4628541586  W2        4786            0.0000000000
     14358      4786  TIP3      H2             27.2238812922      -16.9799263765       -1.1355741586  W2        4786            0.0000000000
     14359      4787  TIP3      OH2            33.0271512922       -1.9044463765       -3.6667141586  W2        4787            0.0000000000
     14360      4787  TIP3      H1             33.4523812922       -2.6116563765       -4.1517541586  W2        4787            0.0000000000
     14361      4787  TIP3      H2             33.3441512922       -1.1031763765       -4.0834941586  W2        4787            0.0000000000
     14362      4788  TIP3      OH2            34.1868012922       -4.0035963765       -5.1580541586  W2        4788            0.0000000000
     14363      4788  TIP3      H1             33.9292812922       -4.6935863765       -5.7694641586  W2        4788            0.0000000000
     14364      4788  TIP3      H2             34.2578812922       -4.4464763765       -4.3124641586  W2        4788            0.0000000000
     14365      4789  TIP3      OH2            35.8728212922       -5.4369263765        3.3192958414  W2        4789            0.0000000000
     14366      4789  TIP3      H1             36.0124512922       -6.0286763765        2.5799958414  W2        4789            0.0000000000
     14367      4789  TIP3      H2             36.0401012922       -4.5643363765        2.9631758414  W2        4789            0.0000000000
     14368      4790  TIP3      OH2            30.3453612922       -8.4749763765       -6.9081041586  W2        4790            0.0000000000
     14369      4790  TIP3      H1             29.6339112922       -7.9400063765       -7.2600541586  W2        4790            0.0000000000
     14370      4790  TIP3      H2             31.0363212922       -8.4197663765       -7.5682141586  W2        4790            0.0000000000
     14371      4791  TIP3      OH2            30.3992812922      -10.0175463765       -9.8696041586  W2        4791            0.0000000000
     14372      4791  TIP3      H1             31.1002712922       -9.9948563765       -9.2182041586  W2        4791            0.0000000000
     14373      4791  TIP3      H2             30.7015712922      -10.6455763765      -10.5256741586  W2        4791            0.0000000000
     14374      4792  TIP3      OH2            33.7511312922       -8.2656463765       -5.9565141586  W2        4792            0.0000000000
     14375      4792  TIP3      H1             33.0192312922       -8.0372763765       -5.3834541586  W2        4792            0.0000000000
     14376      4792  TIP3      H2             34.1983512922       -8.9793763765       -5.5017641586  W2        4792            0.0000000000
     14377      4793  TIP3      OH2            33.6484812922      -10.0913863765        3.1111858414  W2        4793            0.0000000000
     14378      4793  TIP3      H1             33.7283912922       -9.3279463765        3.6830358414  W2        4793            0.0000000000
     14379      4793  TIP3      H2             33.0472512922       -9.8121463765        2.4206958414  W2        4793            0.0000000000
     14380      4794  TIP3      OH2            25.3965012922       -7.6350263765       -4.0740141586  W2        4794            0.0000000000
     14381      4794  TIP3      H1             25.0660212922       -8.0056863765       -4.8923141586  W2        4794            0.0000000000
     14382      4794  TIP3      H2             25.9849112922       -8.3056263765       -3.7271841586  W2        4794            0.0000000000
     14383      4795  TIP3      OH2            26.7632512922       -4.2069663765       -1.3927941586  W2        4795            0.0000000000
     14384      4795  TIP3      H1             26.6683812922       -4.7856563765       -2.1493341586  W2        4795            0.0000000000
     14385      4795  TIP3      H2             27.4926112922       -4.5783963765       -0.8965141586  W2        4795            0.0000000000
     14386      4796  TIP3      OH2            25.7630512922       -8.8664663765       -0.4405141586  W2        4796            0.0000000000
     14387      4796  TIP3      H1             26.3283012922       -8.7450463765       -1.2033941586  W2        4796            0.0000000000
     14388      4796  TIP3      H2             26.0819412922       -8.2289663765        0.1983358414  W2        4796            0.0000000000
     14389      4797  TIP3      OH2            32.0722712922       -3.3632763765        0.2935358414  W2        4797            0.0000000000
     14390      4797  TIP3      H1             31.8319312922       -2.7009663765        0.9414558414  W2        4797            0.0000000000
     14391      4797  TIP3      H2             31.8740912922       -4.1977563765        0.7184958414  W2        4797            0.0000000000
     14392      4798  TIP3      OH2            26.6431212922       -4.4671963765        4.2766758414  W2        4798            0.0000000000
     14393      4798  TIP3      H1             26.3318712922       -3.6848763765        4.7319958414  W2        4798            0.0000000000
     14394      4798  TIP3      H2             25.9931412922       -4.6202863765        3.5908758414  W2        4798            0.0000000000
     14395      4799  TIP3      OH2            32.6220812922       -9.1033563765       -8.2713941586  W2        4799            0.0000000000
     14396      4799  TIP3      H1             33.2016312922       -8.9533263765       -7.5245041586  W2        4799            0.0000000000
     14397      4799  TIP3      H2             33.0360812922       -8.6326163765       -8.9947541586  W2        4799            0.0000000000
     14398      4800  TIP3      OH2            23.5631112922       -8.2690863765        3.5052458414  W2        4800            0.0000000000
     14399      4800  TIP3      H1             23.6334312922       -7.6184063765        4.2037458414  W2        4800            0.0000000000
     14400      4800  TIP3      H2             22.6723312922       -8.1663363765        3.1703358414  W2        4800            0.0000000000
     14401      4801  TIP3      OH2            30.3485712922       -2.3665063765       -4.8360841586  W2        4801            0.0000000000
     14402      4801  TIP3      H1             30.8223312922       -2.0708763765       -4.0586641586  W2        4801            0.0000000000
     14403      4801  TIP3      H2             29.7855012922       -1.6283463765       -5.0691241586  W2        4801            0.0000000000
     14404      4802  TIP3      OH2            24.8827112922       -2.3956963765        5.0400558414  W2        4802            0.0000000000
     14405      4802  TIP3      H1             24.8902412922       -2.5317263765        4.0926058414  W2        4802            0.0000000000
     14406      4802  TIP3      H2             23.9667512922       -2.5128863765        5.2920558414  W2        4802            0.0000000000
     14407      4803  TIP3      OH2            36.3209212922      -17.3533163765       -8.4584241586  W2        4803            0.0000000000
     14408      4803  TIP3      H1             35.4209912922      -17.2144163765       -8.1633641586  W2        4803            0.0000000000
     14409      4803  TIP3      H2             36.5727612922      -16.5218563765       -8.8602541586  W2        4803            0.0000000000
     14410      4804  TIP3      OH2            24.3867712922       -8.5655963765       -6.4847341586  W2        4804            0.0000000000
     14411      4804  TIP3      H1             24.0949012922       -7.7974263765       -6.9756041586  W2        4804            0.0000000000
     14412      4804  TIP3      H2             23.7122912922       -9.2249763765       -6.6475941586  W2        4804            0.0000000000
     14413      4805  TIP3      OH2            20.4797812922       -6.2026763765        2.3302458414  W2        4805            0.0000000000
     14414      4805  TIP3      H1             19.9786212922       -6.2307363765        1.5152158414  W2        4805            0.0000000000
     14415      4805  TIP3      H2             20.4851512922       -7.1083563765        2.6399758414  W2        4805            0.0000000000
     14416      4806  TIP3      OH2            20.2300512922       -3.4222963765       -0.7857341586  W2        4806            0.0000000000
     14417      4806  TIP3      H1             21.1761112922       -3.5665963765       -0.8047841586  W2        4806            0.0000000000
     14418      4806  TIP3      H2             20.1176812922       -2.6380163765       -0.2486141586  W2        4806            0.0000000000
     14419      4807  TIP3      OH2            29.4063012922       -3.1824063765        3.7727758414  W2        4807            0.0000000000
     14420      4807  TIP3      H1             29.4937612922       -2.3559463765        4.2476858414  W2        4807            0.0000000000
     14421      4807  TIP3      H2             28.5428112922       -3.5120263765        4.0217058414  W2        4807            0.0000000000
     14422      4808  TIP3      OH2            29.8208812922        0.5899636235       -6.4211641586  W2        4808            0.0000000000
     14423      4808  TIP3      H1             29.7454812922        0.4686836235       -7.3676441586  W2        4808            0.0000000000
     14424      4808  TIP3      H2             29.8537512922        1.5392336235       -6.3027041586  W2        4808            0.0000000000
     14425      4809  TIP3      OH2            23.4742612922       -0.6213363765       -4.6402641586  W2        4809            0.0000000000
     14426      4809  TIP3      H1             23.6263012922       -0.9692963765       -3.7616141586  W2        4809            0.0000000000
     14427      4809  TIP3      H2             22.6233012922       -0.9776063765       -4.8955441586  W2        4809            0.0000000000
     14428      4810  TIP3      OH2            32.9224812922       -0.2560163765       -9.4189241586  W2        4810            0.0000000000
     14429      4810  TIP3      H1             33.2973212922       -1.0004063765       -9.8896641586  W2        4810            0.0000000000
     14430      4810  TIP3      H2             32.9268512922       -0.5259563765       -8.5005941586  W2        4810            0.0000000000
     14431      4811  TIP3      OH2            32.5912912922       -0.3303063765       -6.6697041586  W2        4811            0.0000000000
     14432      4811  TIP3      H1             31.6562712922       -0.2301163765       -6.4910041586  W2        4811            0.0000000000
     14433      4811  TIP3      H2             32.8714812922       -1.0397063765       -6.0913841586  W2        4811            0.0000000000
     14434      4812  TIP3      OH2            35.5798812922      -11.2630763765        5.3768558414  W2        4812            0.0000000000
     14435      4812  TIP3      H1             35.1725612922      -10.7825163765        4.6561858414  W2        4812            0.0000000000
     14436      4812  TIP3      H2             35.6204512922      -12.1684763765        5.0689358414  W2        4812            0.0000000000
     14437      4813  TIP3      OH2            22.7288312922       -4.8791363765        3.3735258414  W2        4813            0.0000000000
     14438      4813  TIP3      H1             22.9449612922       -5.2405763765        4.2331058414  W2        4813            0.0000000000
     14439      4813  TIP3      H2             21.8733012922       -5.2537563765        3.1638758414  W2        4813            0.0000000000
     14440      4814  TIP3      OH2            25.3476312922      -16.4090863765       -0.6310541586  W2        4814            0.0000000000
     14441      4814  TIP3      H1             24.4860012922      -16.4962663765       -1.0387641586  W2        4814            0.0000000000
     14442      4814  TIP3      H2             25.3252012922      -15.5530763765       -0.2032941586  W2        4814            0.0000000000
     14443      4815  TIP3      OH2            30.0104112922      -16.6870463765        2.7436458414  W2        4815            0.0000000000
     14444      4815  TIP3      H1             30.4307212922      -17.1023363765        3.4967058414  W2        4815            0.0000000000
     14445      4815  TIP3      H2             29.0773712922      -16.8657163765        2.8608458414  W2        4815            0.0000000000
     14446      4816  TIP3      OH2            33.3369012922      -12.9315263765        3.5970958414  W2        4816            0.0000000000
     14447      4816  TIP3      H1             32.8228512922      -13.0573063765        4.3946958414  W2        4816            0.0000000000
     14448      4816  TIP3      H2             33.1813712922      -12.0192163765        3.3527158414  W2        4816            0.0000000000
     14449      4817  TIP3      OH2            34.0993912922       -8.0705263765      -10.6416041586  W2        4817            0.0000000000
     14450      4817  TIP3      H1             34.1414712922       -8.2931363765      -11.5716041586  W2        4817            0.0000000000
     14451      4817  TIP3      H2             34.9486012922       -7.6718163765      -10.4516141586  W2        4817            0.0000000000
     14452      4818  TIP3      OH2            29.6721412922      -14.1947063765       -9.9712741586  W2        4818            0.0000000000
     14453      4818  TIP3      H1             29.4186212922      -14.1755463765       -9.0484641586  W2        4818            0.0000000000
     14454      4818  TIP3      H2             29.4153512922      -15.0661663765      -10.2726541586  W2        4818            0.0000000000
     14455      4819  TIP3      OH2            25.4386412922      -11.4436363765        0.4639658414  W2        4819            0.0000000000
     14456      4819  TIP3      H1             24.7968512922      -11.4839063765        1.1729758414  W2        4819            0.0000000000
     14457      4819  TIP3      H2             25.4758412922      -10.5171663765        0.2262658414  W2        4819            0.0000000000
     14458      4820  TIP3      OH2            25.4355512922      -11.2226263765       -4.6240341586  W2        4820            0.0000000000
     14459      4820  TIP3      H1             24.5428412922      -11.5630163765       -4.6826541586  W2        4820            0.0000000000
     14460      4820  TIP3      H2             25.8862112922      -11.5995363765       -5.3797141586  W2        4820            0.0000000000
     14461      4821  TIP3      OH2            30.9711012922      -10.8065963765       -5.8069541586  W2        4821            0.0000000000
     14462      4821  TIP3      H1             30.5621312922       -9.9917363765       -6.0984741586  W2        4821            0.0000000000
     14463      4821  TIP3      H2             31.6917212922      -10.9465863765       -6.4212441586  W2        4821            0.0000000000
     14464      4822  TIP3      OH2            30.0732612922      -10.6309563765        5.6811158414  W2        4822            0.0000000000
     14465      4822  TIP3      H1             29.5106412922      -11.3357963765        6.0018958414  W2        4822            0.0000000000
     14466      4822  TIP3      H2             30.8996012922      -10.7517663765        6.1488758414  W2        4822            0.0000000000
     14467      4823  TIP3      OH2            31.9758712922      -11.3605563765       -2.9929841586  W2        4823            0.0000000000
     14468      4823  TIP3      H1             31.7803212922      -10.7548763765       -3.7079241586  W2        4823            0.0000000000
     14469      4823  TIP3      H2             32.1571312922      -12.1940363765       -3.4273541586  W2        4823            0.0000000000
     14470      4824  TIP3      OH2            23.1886912922      -11.1232863765        2.3311658414  W2        4824            0.0000000000
     14471      4824  TIP3      H1             23.1506312922      -10.7231263765        3.1998758414  W2        4824            0.0000000000
     14472      4824  TIP3      H2             22.6978012922      -11.9400463765        2.4214558414  W2        4824            0.0000000000
     14473      4825  TIP3      OH2            26.5544312922      -13.7490563765      -10.8702341586  W2        4825            0.0000000000
     14474      4825  TIP3      H1             26.1235012922      -14.1940463765      -10.1404941586  W2        4825            0.0000000000
     14475      4825  TIP3      H2             25.8363012922      -13.3774263765      -11.3824841586  W2        4825            0.0000000000
     14476      4826  TIP3      OH2            19.7967712922      -14.0071063765       -3.8183641586  W2        4826            0.0000000000
     14477      4826  TIP3      H1             20.4275412922      -14.0358963765       -3.0989741586  W2        4826            0.0000000000
     14478      4826  TIP3      H2             20.2462012922      -14.4322363765       -4.5487741586  W2        4826            0.0000000000
     14479      4827  TIP3      OH2            21.0709812922      -13.2609063765       -8.3943241586  W2        4827            0.0000000000
     14480      4827  TIP3      H1             21.5451512922      -12.6699163765       -8.9792341586  W2        4827            0.0000000000
     14481      4827  TIP3      H2             20.3536212922      -12.7306163765       -8.0473141586  W2        4827            0.0000000000
     14482      4828  TIP3      OH2            31.2397912922       -9.7224263765        1.6782558414  W2        4828            0.0000000000
     14483      4828  TIP3      H1             31.5632712922      -10.3534563765        1.0353058414  W2        4828            0.0000000000
     14484      4828  TIP3      H2             30.7997212922      -10.2572063765        2.3389958414  W2        4828            0.0000000000
     14485      4829  TIP3      OH2            28.0170812922      -13.7948763765       -3.5376241586  W2        4829            0.0000000000
     14486      4829  TIP3      H1             27.1061912922      -13.7381963765       -3.2490241586  W2        4829            0.0000000000
     14487      4829  TIP3      H2             28.5223712922      -13.8553263765       -2.7269041586  W2        4829            0.0000000000
     14488      4830  TIP3      OH2            22.8454212922      -12.1662463765       -4.7108641586  W2        4830            0.0000000000
     14489      4830  TIP3      H1             21.9562212922      -12.0666963765       -5.0509041586  W2        4830            0.0000000000
     14490      4830  TIP3      H2             23.1419112922      -13.0079463765       -5.0570741586  W2        4830            0.0000000000
     14491      4831  TIP3      OH2            26.4986012922      -12.1659863765       -7.0544041586  W2        4831            0.0000000000
     14492      4831  TIP3      H1             27.4301512922      -12.0369863765       -6.8760941586  W2        4831            0.0000000000
     14493      4831  TIP3      H2             26.2836312922      -11.4965563765       -7.7039341586  W2        4831            0.0000000000
     14494      4832  TIP3      OH2            32.4222712922      -14.5602463765       -0.2734441586  W2        4832            0.0000000000
     14495      4832  TIP3      H1             31.7454312922      -14.4289363765        0.3905258414  W2        4832            0.0000000000
     14496      4832  TIP3      H2             31.9367612922      -14.7152963765       -1.0836741586  W2        4832            0.0000000000
     14497      4833  TIP3      OH2            25.1726212922      -10.9717663765       -9.4877941586  W2        4833            0.0000000000
     14498      4833  TIP3      H1             24.6301312922      -11.3513863765      -10.1790341586  W2        4833            0.0000000000
     14499      4833  TIP3      H2             26.0061112922      -10.7772963765       -9.9163841586  W2        4833            0.0000000000
     14500      4834  TIP3      OH2            35.7097812922        1.1112936235        6.0033158414  W2        4834            0.0000000000
     14501      4834  TIP3      H1             35.9096512922        1.5354836235        5.1688458414  W2        4834            0.0000000000
     14502      4834  TIP3      H2             36.3651512922        1.4551136235        6.6103558414  W2        4834            0.0000000000
     14503      4835  TIP3      OH2            23.3077612922       -6.4145763765        5.6113658414  W2        4835            0.0000000000
     14504      4835  TIP3      H1             24.0400012922       -6.1599863765        6.1728158414  W2        4835            0.0000000000
     14505      4835  TIP3      H2             22.5276312922       -6.2100363765        6.1269058414  W2        4835            0.0000000000
     14506      4836  TIP3      OH2            29.3370512922      -11.0075763765       -1.6506641586  W2        4836            0.0000000000
     14507      4836  TIP3      H1             29.9013912922      -11.5539163765       -2.1977041586  W2        4836            0.0000000000
     14508      4836  TIP3      H2             29.1893912922      -11.5293863765       -0.8619041586  W2        4836            0.0000000000
     14509      4837  TIP3      OH2            24.3390212922      -14.8709663765       -5.2321841586  W2        4837            0.0000000000
     14510      4837  TIP3      H1             24.0219712922      -15.7734363765       -5.2676441586  W2        4837            0.0000000000
     14511      4837  TIP3      H2             25.1204312922      -14.8692263765       -5.7850241586  W2        4837            0.0000000000
     14512      4838  TIP3      OH2            27.9636412922      -12.6189663765        0.7633758414  W2        4838            0.0000000000
     14513      4838  TIP3      H1             27.1281712922      -12.1650163765        0.8736158414  W2        4838            0.0000000000
     14514      4838  TIP3      H2             28.4877012922      -12.3431163765        1.5153658414  W2        4838            0.0000000000
     14515      4839  TIP3      OH2            28.5079012922       -6.4061963765       -7.5519841586  W2        4839            0.0000000000
     14516      4839  TIP3      H1             27.7630012922       -6.9136663765       -7.8741941586  W2        4839            0.0000000000
     14517      4839  TIP3      H2             28.3736212922       -6.3573963765       -6.6055041586  W2        4839            0.0000000000
     14518      4840  TIP3      OH2            35.6577912922       -7.2733763765        1.2347758414  W2        4840            0.0000000000
     14519      4840  TIP3      H1             36.2996712922       -6.8167463765        0.6909958414  W2        4840            0.0000000000
     14520      4840  TIP3      H2             34.8274812922       -7.1601363765        0.7721858414  W2        4840            0.0000000000
     14521      4841  TIP3      OH2            32.4055812922      -13.5922063765       -9.3527241586  W2        4841            0.0000000000
     14522      4841  TIP3      H1             31.4670012922      -13.4806463765       -9.5038441586  W2        4841            0.0000000000
     14523      4841  TIP3      H2             32.7027912922      -12.7355163765       -9.0461541586  W2        4841            0.0000000000
     14524      4842  TIP3      OH2            30.0271112922       -6.2218663765        3.6849258414  W2        4842            0.0000000000
     14525      4842  TIP3      H1             29.6817212922       -6.6036263765        4.4918858414  W2        4842            0.0000000000
     14526      4842  TIP3      H2             29.8271212922       -5.2885063765        3.7562158414  W2        4842            0.0000000000
     14527      4843  TIP3      OH2            33.1239312922      -11.7249363765       -7.6919841586  W2        4843            0.0000000000
     14528      4843  TIP3      H1             34.0158312922      -11.8624363765       -7.3728641586  W2        4843            0.0000000000
     14529      4843  TIP3      H2             33.1802912922      -10.9343263765       -8.2286341586  W2        4843            0.0000000000
     14530      4844  TIP3      OH2            23.6327312922       -7.1111963765       -1.7821941586  W2        4844            0.0000000000
     14531      4844  TIP3      H1             24.3774512922       -7.1136263765       -2.3835441586  W2        4844            0.0000000000
     14532      4844  TIP3      H2             23.7103912922       -7.9348163765       -1.3006841586  W2        4844            0.0000000000
     14533      4845  TIP3      OH2            30.6333112922       -4.9477663765       -8.5265241586  W2        4845            0.0000000000
     14534      4845  TIP3      H1             30.3381512922       -4.1209763765       -8.1450441586  W2        4845            0.0000000000
     14535      4845  TIP3      H2             29.9303112922       -5.5670763765       -8.3303841586  W2        4845            0.0000000000
     14536      4846  TIP3      OH2            20.6407012922       -8.6505063765        3.5326558414  W2        4846            0.0000000000
     14537      4846  TIP3      H1             20.8635612922       -9.0685463765        4.3644058414  W2        4846            0.0000000000
     14538      4846  TIP3      H2             20.0387112922       -9.2630063765        3.1099358414  W2        4846            0.0000000000
     14539      4847  TIP3      OH2            27.6571912922       -9.1335163765        5.7456258414  W2        4847            0.0000000000
     14540      4847  TIP3      H1             27.3612712922       -9.2992163765        4.8505358414  W2        4847            0.0000000000
     14541      4847  TIP3      H2             28.5887112922       -9.3534863765        5.7350158414  W2        4847            0.0000000000
     14542      4848  TIP3      OH2            32.2774712922       -3.7603163765        3.6354258414  W2        4848            0.0000000000
     14543      4848  TIP3      H1             31.3769012922       -3.5770563765        3.3678158414  W2        4848            0.0000000000
     14544      4848  TIP3      H2             32.3115812922       -3.5013863765        4.5563058414  W2        4848            0.0000000000
     14545      4849  TIP3      OH2            36.3039712922       -2.7294863765       -7.5321041586  W2        4849            0.0000000000
     14546      4849  TIP3      H1             35.9310812922       -3.5551063765       -7.2230441586  W2        4849            0.0000000000
     14547      4849  TIP3      H2             36.5813212922       -2.9125463765       -8.4297641586  W2        4849            0.0000000000
     14548      4850  TIP3      OH2            33.4643612922       -7.9215363765       -0.5109141586  W2        4850            0.0000000000
     14549      4850  TIP3      H1             32.5360512922       -8.1533463765       -0.5379841586  W2        4850            0.0000000000
     14550      4850  TIP3      H2             33.9154712922       -8.6985563765       -0.8410341586  W2        4850            0.0000000000
     14551      4851  TIP3      OH2            26.0076712922       -3.5933763765       -4.3780441586  W2        4851            0.0000000000
     14552      4851  TIP3      H1             26.5348912922       -2.8199363765       -4.5781641586  W2        4851            0.0000000000
     14553      4851  TIP3      H2             25.1275212922       -3.3684563765       -4.6796441586  W2        4851            0.0000000000
     14554      4852  TIP3      OH2            21.7624412922       -8.7309663765       -9.7908041586  W2        4852            0.0000000000
     14555      4852  TIP3      H1             22.3784312922       -8.1042463765       -9.4113241586  W2        4852            0.0000000000
     14556      4852  TIP3      H2             20.9007012922       -8.4149863765       -9.5191541586  W2        4852            0.0000000000
     14557      4853  TIP3      OH2            27.4349012922       -5.9303863765       -4.8016141586  W2        4853            0.0000000000
     14558      4853  TIP3      H1             27.1939012922       -5.0049463765       -4.7600841586  W2        4853            0.0000000000
     14559      4853  TIP3      H2             26.6942612922       -6.3892563765       -4.4052241586  W2        4853            0.0000000000
     14560      4854  TIP3      OH2            27.9495612922       -1.7810263765        1.5134958414  W2        4854            0.0000000000
     14561      4854  TIP3      H1             28.3120312922       -0.9264663765        1.2799358414  W2        4854            0.0000000000
     14562      4854  TIP3      H2             28.4810812922       -2.0728663765        2.2541258414  W2        4854            0.0000000000
     14563      4855  TIP3      OH2            26.1179812922       -0.9086263765       -5.2563941586  W2        4855            0.0000000000
     14564      4855  TIP3      H1             25.1680312922       -0.8028863765       -5.2050641586  W2        4855            0.0000000000
     14565      4855  TIP3      H2             26.4697912922       -0.0878863765       -4.9116441586  W2        4855            0.0000000000
     14566      4856  TIP3      OH2            31.4936412922       -5.6819563765        1.2140558414  W2        4856            0.0000000000
     14567      4856  TIP3      H1             31.0677712922       -5.9097863765        2.0404558414  W2        4856            0.0000000000
     14568      4856  TIP3      H2             32.0742212922       -6.4207763765        1.0315858414  W2        4856            0.0000000000
     14569      4857  TIP3      OH2            33.6965312922       -4.7529063765       -9.7120441586  W2        4857            0.0000000000
     14570      4857  TIP3      H1             34.0498412922       -5.1329263765       -8.9076941586  W2        4857            0.0000000000
     14571      4857  TIP3      H2             32.7478812922       -4.8464263765       -9.6251141586  W2        4857            0.0000000000
     14572      4858  TIP3      OH2            34.1520612922       -1.1300063765        3.6835358414  W2        4858            0.0000000000
     14573      4858  TIP3      H1             33.5503812922       -1.6857163765        3.1881658414  W2        4858            0.0000000000
     14574      4858  TIP3      H2             34.4334312922       -0.4630263765        3.0572758414  W2        4858            0.0000000000
     14575      4859  TIP3      OH2            22.2746512922      -13.8972363765        3.0907958414  W2        4859            0.0000000000
     14576      4859  TIP3      H1             21.3818812922      -13.5586963765        3.0231958414  W2        4859            0.0000000000
     14577      4859  TIP3      H2             22.1759312922      -14.7526263765        3.5088758414  W2        4859            0.0000000000
     14578      4860  TIP3      OH2            34.5624612922       -6.0807063765       -7.4852541586  W2        4860            0.0000000000
     14579      4860  TIP3      H1             34.2852212922       -6.8087763765       -6.9291441586  W2        4860            0.0000000000
     14580      4860  TIP3      H2             35.4897612922       -5.9615063765       -7.2799941586  W2        4860            0.0000000000
     14581      4861  TIP3      OH2            21.9258512922       -2.0927963765        1.5257358414  W2        4861            0.0000000000
     14582      4861  TIP3      H1             22.1428812922       -3.0245563765        1.4947058414  W2        4861            0.0000000000
     14583      4861  TIP3      H2             22.1722012922       -1.8182963765        2.4090158414  W2        4861            0.0000000000
     14584      4862  TIP3      OH2            27.7873112922       -3.6412963765      -11.2650441586  W2        4862            0.0000000000
     14585      4862  TIP3      H1             28.0262912922       -4.3894863765      -11.8121541586  W2        4862            0.0000000000
     14586      4862  TIP3      H2             27.5184412922       -4.0291263765      -10.4322641586  W2        4862            0.0000000000
     14587      4863  TIP3      OH2            26.7243712922       -4.0709163765       -8.8087841586  W2        4863            0.0000000000
     14588      4863  TIP3      H1             26.8711712922       -4.5909363765       -8.0186941586  W2        4863            0.0000000000
     14589      4863  TIP3      H2             26.7215412922       -3.1641563765       -8.5021941586  W2        4863            0.0000000000
     14590      4864  TIP3      OH2            23.1774812922       -6.8185863765       -8.2982441586  W2        4864            0.0000000000
     14591      4864  TIP3      H1             22.4914112922       -6.4663363765       -7.7312741586  W2        4864            0.0000000000
     14592      4864  TIP3      H2             23.7002712922       -6.0556263765       -8.5448141586  W2        4864            0.0000000000
     14593      4865  TIP3      OH2            31.0089912922      -14.1562063765        1.9806558414  W2        4865            0.0000000000
     14594      4865  TIP3      H1             31.7077812922      -14.0823363765        2.6306258414  W2        4865            0.0000000000
     14595      4865  TIP3      H2             30.6281312922      -15.0207063765        2.1349458414  W2        4865            0.0000000000
     14596      4866  TIP3      OH2            31.7934812922      -14.5040363765       -6.9221141586  W2        4866            0.0000000000
     14597      4866  TIP3      H1             32.0133112922      -14.0324963765       -7.7255741586  W2        4866            0.0000000000
     14598      4866  TIP3      H2             32.3518812922      -14.1097763765       -6.2520541586  W2        4866            0.0000000000
     14599      4867  TIP3      OH2            29.4620912922       -2.3735563765       -8.0593641586  W2        4867            0.0000000000
     14600      4867  TIP3      H1             28.6457012922       -1.8765863765       -8.0069341586  W2        4867            0.0000000000
     14601      4867  TIP3      H2             29.9917212922       -1.8982063765       -8.6994841586  W2        4867            0.0000000000
     14602      4868  TIP3      OH2            28.9934712922      -12.7761563765       -6.0872741586  W2        4868            0.0000000000
     14603      4868  TIP3      H1             29.8057312922      -12.2718363765       -6.0411041586  W2        4868            0.0000000000
     14604      4868  TIP3      H2             28.7487712922      -12.9211863765       -5.1733141586  W2        4868            0.0000000000
     14605      4869  TIP3      OH2            29.5291112922      -11.7898863765        3.0973858414  W2        4869            0.0000000000
     14606      4869  TIP3      H1             29.6481412922      -11.2163463765        3.8544258414  W2        4869            0.0000000000
     14607      4869  TIP3      H2             30.1845712922      -12.4779463765        3.2121658414  W2        4869            0.0000000000
     14608      4870  TIP3      OH2            29.8771412922      -15.6948563765       -5.1491641586  W2        4870            0.0000000000
     14609      4870  TIP3      H1             29.5304912922      -15.0777963765       -4.5047341586  W2        4870            0.0000000000
     14610      4870  TIP3      H2             30.5358312922      -15.1942863765       -5.6306141586  W2        4870            0.0000000000
     14611      4871  TIP3      OH2            26.8004012922       -1.3298363765       -8.0776741586  W2        4871            0.0000000000
     14612      4871  TIP3      H1             26.9612712922       -0.5300863765       -8.5784141586  W2        4871            0.0000000000
     14613      4871  TIP3      H2             26.6031812922       -1.0232363765       -7.1926141586  W2        4871            0.0000000000
     14614      4872  TIP3      OH2            25.5348412922      -14.6319163765       -8.4619141586  W2        4872            0.0000000000
     14615      4872  TIP3      H1             25.4513212922      -13.7436063765       -8.1152741586  W2        4872            0.0000000000
     14616      4872  TIP3      H2             26.4248712922      -14.8972463765       -8.2302341586  W2        4872            0.0000000000
     14617      4873  TIP3      OH2            35.7336912922      -13.8828563765        3.9323558414  W2        4873            0.0000000000
     14618      4873  TIP3      H1             34.8172712922      -13.6206863765        3.8447258414  W2        4873            0.0000000000
     14619      4873  TIP3      H2             36.0691912922      -13.8859563765        3.0358858414  W2        4873            0.0000000000
     14620      4874  TIP3      OH2            34.3357912922      -10.1327563765       -1.9719141586  W2        4874            0.0000000000
     14621      4874  TIP3      H1             33.5382312922      -10.5477363765       -2.3004141586  W2        4874            0.0000000000
     14622      4874  TIP3      H2             34.7809012922      -10.8233863765       -1.4808641586  W2        4874            0.0000000000
     14623      4875  TIP3      OH2            23.7933712922       -4.2046963765       -9.4014641586  W2        4875            0.0000000000
     14624      4875  TIP3      H1             24.3855212922       -3.5052163765       -9.1252241586  W2        4875            0.0000000000
     14625      4875  TIP3      H2             24.2526712922       -4.6377463765      -10.1210041586  W2        4875            0.0000000000
     14626      4876  TIP3      OH2            22.1092912922      -11.5403963765      -10.2855241586  W2        4876            0.0000000000
     14627      4876  TIP3      H1             22.0645512922      -10.6010863765      -10.1068241586  W2        4876            0.0000000000
     14628      4876  TIP3      H2             21.2216112922      -11.7759063765      -10.5553141586  W2        4876            0.0000000000
     14629      4877  TIP3      OH2            35.4222512922       -0.8765063765       -0.3495641586  W2        4877            0.0000000000
     14630      4877  TIP3      H1             35.2666812922       -0.1980663765       -1.0066341586  W2        4877            0.0000000000
     14631      4877  TIP3      H2             36.3548912922       -0.8045763765       -0.1465041586  W2        4877            0.0000000000
     14632      4878  TIP3      OH2            22.9174912922      -16.7587363765       -1.6124241586  W2        4878            0.0000000000
     14633      4878  TIP3      H1             22.6884712922      -16.6994863765       -2.5399241586  W2        4878            0.0000000000
     14634      4878  TIP3      H2             22.4748312922      -17.5501863765       -1.3060141586  W2        4878            0.0000000000
     14635      4879  TIP3      OH2            21.8478212922       -2.8180263765       -5.4518441586  W2        4879            0.0000000000
     14636      4879  TIP3      H1             21.0156812922       -2.3457563765       -5.4247041586  W2        4879            0.0000000000
     14637      4879  TIP3      H2             22.3936512922       -2.3082663765       -6.0505341586  W2        4879            0.0000000000
     14638      4880  TIP3      OH2            21.1361912922       -0.2056563765        5.8779558414  W2        4880            0.0000000000
     14639      4880  TIP3      H1             21.6764112922       -0.4222563765        6.6378758414  W2        4880            0.0000000000
     14640      4880  TIP3      H2             20.6549912922       -1.0110563765        5.6882058414  W2        4880            0.0000000000
     14641      4881  TIP3      OH2            25.7335312922       -1.2862163765        7.4983758414  W2        4881            0.0000000000
     14642      4881  TIP3      H1             26.5012512922       -1.7451363765        7.8392958414  W2        4881            0.0000000000
     14643      4881  TIP3      H2             25.7121512922       -1.5122363765        6.5684958414  W2        4881            0.0000000000
     14644      4882  TIP3      OH2            29.8254912922       -1.7781563765      -11.1264441586  W2        4882            0.0000000000
     14645      4882  TIP3      H1             29.1815912922       -2.4092963765      -10.8050741586  W2        4882            0.0000000000
     14646      4882  TIP3      H2             30.5873212922       -2.3093563765      -11.3580941586  W2        4882            0.0000000000
     14647      4883  TIP3      OH2            32.3104012922       -2.9061063765        6.2275258414  W2        4883            0.0000000000
     14648      4883  TIP3      H1             31.9593512922       -3.7628063765        6.4705658414  W2        4883            0.0000000000
     14649      4883  TIP3      H2             33.0367212922       -2.7634363765        6.8344258414  W2        4883            0.0000000000
     14650      4884  TIP3      OH2            34.4297812922       -1.9611663765      -10.8926441586  W2        4884            0.0000000000
     14651      4884  TIP3      H1             34.7128212922       -2.7556463765      -10.4399541586  W2        4884            0.0000000000
     14652      4884  TIP3      H2             35.1695712922       -1.7280663765      -11.4535341586  W2        4884            0.0000000000
     14653      4885  TIP3      OH2            21.0431412922       -6.3952463765        6.8323858414  W2        4885            0.0000000000
     14654      4885  TIP3      H1             21.1871912922       -7.2971763765        6.5460558414  W2        4885            0.0000000000
     14655      4885  TIP3      H2             20.2708812922       -6.1090363765        6.3446158414  W2        4885            0.0000000000
     14656      4886  TIP3      OH2            25.3845112922       -6.0516763765      -11.0351541586  W2        4886            0.0000000000
     14657      4886  TIP3      H1             25.4489212922       -6.8457163765      -10.5045141586  W2        4886            0.0000000000
     14658      4886  TIP3      H2             26.0374312922       -6.1703963765      -11.7249541586  W2        4886            0.0000000000
     14659      4887  TIP3      OH2            27.6987512922       -6.4254363765        6.2650258414  W2        4887            0.0000000000
     14660      4887  TIP3      H1             27.3701312922       -6.1546263765        5.4077658414  W2        4887            0.0000000000
     14661      4887  TIP3      H2             27.8505712922       -7.3664563765        6.1775258414  W2        4887            0.0000000000
     14662      4888  TIP3      OH2            30.7368512922       -5.0045063765      -11.2993541586  W2        4888            0.0000000000
     14663      4888  TIP3      H1             30.4682612922       -4.8242963765      -10.3984641586  W2        4888            0.0000000000
     14664      4888  TIP3      H2             30.5304112922       -5.9298863765      -11.4307741586  W2        4888            0.0000000000
     14665      4889  TIP3      OH2            33.4332712922       -6.5097063765        3.6482558414  W2        4889            0.0000000000
     14666      4889  TIP3      H1             34.1787512922       -5.9213363765        3.5286558414  W2        4889            0.0000000000
     14667      4889  TIP3      H2             32.6759512922       -5.9277363765        3.7115658414  W2        4889            0.0000000000
     14668      4890  TIP3      OH2            21.8757912922       -9.1949163765        6.2523158414  W2        4890            0.0000000000
     14669      4890  TIP3      H1             22.2839112922      -10.0522563765        6.1313758414  W2        4890            0.0000000000
     14670      4890  TIP3      H2             21.6155512922       -9.1807863765        7.1733458414  W2        4890            0.0000000000
     14671      4891  TIP3      OH2            26.5338912922       -8.0790563765       -8.7293541586  W2        4891            0.0000000000
     14672      4891  TIP3      H1             26.0740912922       -8.5632263765       -8.0435041586  W2        4891            0.0000000000
     14673      4891  TIP3      H2             26.7887612922       -8.7475163765       -9.3653041586  W2        4891            0.0000000000
     14674      4892  TIP3      OH2            25.8228212922      -10.1863463765        3.6266058414  W2        4892            0.0000000000
     14675      4892  TIP3      H1             25.2044312922       -9.5116863765        3.9070758414  W2        4892            0.0000000000
     14676      4892  TIP3      H2             26.1669412922       -9.8649563765        2.7932258414  W2        4892            0.0000000000
     14677      4893  TIP3      OH2            27.6049312922       -9.8358763765      -10.4670341586  W2        4893            0.0000000000
     14678      4893  TIP3      H1             27.4244312922       -9.9907563765      -11.3942041586  W2        4893            0.0000000000
     14679      4893  TIP3      H2             28.5549812922       -9.7280063765      -10.4222441586  W2        4893            0.0000000000
     14680      4894  TIP3      OH2            30.8426412922       -7.7148163765        6.9040858414  W2        4894            0.0000000000
     14681      4894  TIP3      H1             31.7957612922       -7.6309063765        6.8766858414  W2        4894            0.0000000000
     14682      4894  TIP3      H2             30.6821012922       -8.4266363765        7.5235758414  W2        4894            0.0000000000
     14683      4895  TIP3      OH2            26.1621912922      -12.8312663765        4.7089158414  W2        4895            0.0000000000
     14684      4895  TIP3      H1             26.3122812922      -13.5601363765        4.1068858414  W2        4895            0.0000000000
     14685      4895  TIP3      H2             26.1644312922      -12.0540963765        4.1501358414  W2        4895            0.0000000000
     14686      4896  TIP3      OH2            26.5747612922      -14.4616863765        2.2016558414  W2        4896            0.0000000000
     14687      4896  TIP3      H1             27.1105112922      -14.0100163765        1.5495858414  W2        4896            0.0000000000
     14688      4896  TIP3      H2             25.7227212922      -14.5697063765        1.7790658414  W2        4896            0.0000000000
     14689      4897  TIP3      OH2            28.1566012922       -9.0220663765        2.4411758414  W2        4897            0.0000000000
     14690      4897  TIP3      H1             28.9070812922       -9.1783163765        1.8679558414  W2        4897            0.0000000000
     14691      4897  TIP3      H2             27.8174312922       -8.1704063765        2.1657258414  W2        4897            0.0000000000
     14692      4898  TIP3      OH2            32.5722212922      -11.2068863765        7.4697058414  W2        4898            0.0000000000
     14693      4898  TIP3      H1             32.7643512922      -12.1379463765        7.3581558414  W2        4898            0.0000000000
     14694      4898  TIP3      H2             33.4298512922      -10.7819363765        7.4592458414  W2        4898            0.0000000000
     14695      4899  TIP3      OH2            33.8889412922       -8.4183663765        5.5469758414  W2        4899            0.0000000000
     14696      4899  TIP3      H1             33.6074412922       -7.7089063765        4.9693558414  W2        4899            0.0000000000
     14697      4899  TIP3      H2             34.8313712922       -8.4910663765        5.3960958414  W2        4899            0.0000000000
     14698      4900  TIP3      OH2            24.6408212922      -11.6329163765        6.6204758414  W2        4900            0.0000000000
     14699      4900  TIP3      H1             23.8737212922      -12.1654363765        6.4102358414  W2        4900            0.0000000000
     14700      4900  TIP3      H2             25.3197212922      -11.9428763765        6.0211058414  W2        4900            0.0000000000
     14701      4901  TIP3      OH2            27.3803112922      -17.0051163765        2.6330158414  W2        4901            0.0000000000
     14702      4901  TIP3      H1             27.2822712922      -16.0587963765        2.5276358414  W2        4901            0.0000000000
     14703      4901  TIP3      H2             26.6379312922      -17.3777363765        2.1573658414  W2        4901            0.0000000000
     14704      4902  TIP3      OH2            28.6443612922      -12.6835763765        6.1968558414  W2        4902            0.0000000000
     14705      4902  TIP3      H1             28.4089012922      -12.9029063765        7.0983458414  W2        4902            0.0000000000
     14706      4902  TIP3      H2             27.8610512922      -12.8904563765        5.6871058414  W2        4902            0.0000000000
     14707      4903  TIP3      OH2            31.3600212922      -13.5562263765        5.2722058414  W2        4903            0.0000000000
     14708      4903  TIP3      H1             30.4125612922      -13.5242563765        5.4045358414  W2        4903            0.0000000000
     14709      4903  TIP3      H2             31.6726912922      -14.1815163765        5.9260258414  W2        4903            0.0000000000
     14710      4904  TIP3      OH2            32.9941712922      -14.9221163765        7.2773958414  W2        4904            0.0000000000
     14711      4904  TIP3      H1             32.8973512922      -15.8743863765        7.2715858414  W2        4904            0.0000000000
     14712      4904  TIP3      H2             32.6724812922      -14.6534363765        8.1379458414  W2        4904            0.0000000000
     14713      4905  TIP3      OH2            22.8211012922      -13.7125363765        6.3249458414  W2        4905            0.0000000000
     14714      4905  TIP3      H1             23.0328412922      -14.4189263765        5.7146958414  W2        4905            0.0000000000
     14715      4905  TIP3      H2             22.7098512922      -14.1499363765        7.1690658414  W2        4905            0.0000000000
     14716      4906  TIP3      OH2            27.6021212922      -17.7113763765        5.3042958414  W2        4906            0.0000000000
     14717      4906  TIP3      H1             28.3139612922      -18.3511563765        5.2902058414  W2        4906            0.0000000000
     14718      4906  TIP3      H2             27.5011612922      -17.4445463765        4.3906058414  W2        4906            0.0000000000
     14719      4907  TIP3      OH2            27.9558712922      -16.0285363765        7.3579258414  W2        4907            0.0000000000
     14720      4907  TIP3      H1             27.8240912922      -16.5041563765        6.5377758414  W2        4907            0.0000000000
     14721      4907  TIP3      H2             27.3566112922      -15.2841763765        7.3026358414  W2        4907            0.0000000000
     14722      4908  TIP3      OH2            27.5021012922        0.8544936235       -9.4656741586  W2        4908            0.0000000000
     14723      4908  TIP3      H1             28.4351712922        1.0123636235       -9.3218341586  W2        4908            0.0000000000
     14724      4908  TIP3      H2             27.2379812922        1.5297936235      -10.0905241586  W2        4908            0.0000000000
     14725      4909  TIP3      OH2            21.0705912922       -4.5091263765       -9.9828641586  W2        4909            0.0000000000
     14726      4909  TIP3      H1             21.9845112922       -4.4302363765       -9.7094741586  W2        4909            0.0000000000
     14727      4909  TIP3      H2             21.0779012922       -5.1961663765      -10.6493041586  W2        4909            0.0000000000
     14728      4910  TIP3      OH2            19.7196512922        0.8837236235       -4.9054741586  W2        4910            0.0000000000
     14729      4910  TIP3      H1             19.0723612922        0.4218936235       -5.4383541586  W2        4910            0.0000000000
     14730      4910  TIP3      H2             20.0741112922        0.2120536235       -4.3228541586  W2        4910            0.0000000000
     14731      4911  TIP3      OH2            20.5895712922       -1.0355763765       -3.1008541586  W2        4911            0.0000000000
     14732      4911  TIP3      H1             20.2552512922       -1.9158463765       -2.9288341586  W2        4911            0.0000000000
     14733      4911  TIP3      H2             20.8118112922       -0.6900763765       -2.2362941586  W2        4911            0.0000000000
     14734      4912  TIP3      OH2            36.1520712922       -4.8690163765        7.4395658414  W2        4912            0.0000000000
     14735      4912  TIP3      H1             35.2861812922       -4.9740463765        7.8337958414  W2        4912            0.0000000000
     14736      4912  TIP3      H2             36.5286612922       -4.1106863765        7.8860358414  W2        4912            0.0000000000
     14737      4913  TIP3      OH2            36.0929512922       -2.8964063765        2.0319858414  W2        4913            0.0000000000
     14738      4913  TIP3      H1             35.4454812922       -2.5712563765        2.6575058414  W2        4913            0.0000000000
     14739      4913  TIP3      H2             35.5753512922       -3.3366363765        1.3578158414  W2        4913            0.0000000000
     14740      4914  TIP3      OH2            36.4648112922      -11.4184963765      -10.2807741586  W2        4914            0.0000000000
     14741      4914  TIP3      H1             36.5612512922      -10.7517963765      -10.9608041586  W2        4914            0.0000000000
     14742      4914  TIP3      H2             36.3247712922      -12.2338663765      -10.7622241586  W2        4914            0.0000000000
     14743      4915  TIP3      OH2            35.6342812922      -10.0382563765       -4.6597441586  W2        4915            0.0000000000
     14744      4915  TIP3      H1             35.4841612922      -10.9833963765       -4.6799641586  W2        4915            0.0000000000
     14745      4915  TIP3      H2             35.2807312922       -9.7571163765       -3.8158341586  W2        4915            0.0000000000
     14746      4916  TIP3      OH2            20.6695212922       -7.9600363765       -0.6493641586  W2        4916            0.0000000000
     14747      4916  TIP3      H1             20.8538112922       -8.0418663765       -1.5850741586  W2        4916            0.0000000000
     14748      4916  TIP3      H2             21.5188112922       -8.0843363765       -0.2257241586  W2        4916            0.0000000000
     14749      4917  TIP3      OH2            36.4905712922       -8.0679263765        4.9790858414  W2        4917            0.0000000000
     14750      4917  TIP3      H1             37.0733012922       -8.8026963765        5.1708058414  W2        4917            0.0000000000
     14751      4917  TIP3      H2             37.0545012922       -7.2958963765        5.0256658414  W2        4917            0.0000000000
     14752      4918  TIP3      OH2            35.7121912922      -14.0105163765      -11.1632241586  W2        4918            0.0000000000
     14753      4918  TIP3      H1             36.3227712922      -14.3818363765      -10.5264041586  W2        4918            0.0000000000
     14754      4918  TIP3      H2             34.8753412922      -14.4318263765      -10.9672241586  W2        4918            0.0000000000
     14755      4919  TIP3      OH2            35.3447612922      -12.4556763765       -6.1972341586  W2        4919            0.0000000000
     14756      4919  TIP3      H1             35.6244712922      -13.3626363765       -6.0730641586  W2        4919            0.0000000000
     14757      4919  TIP3      H2             36.1039312922      -12.0215263765       -6.5863141586  W2        4919            0.0000000000
     14758      4920  TIP3      OH2            35.9565912922      -11.8739363765       -0.7613441586  W2        4920            0.0000000000
     14759      4920  TIP3      H1             36.8893912922      -11.6619463765       -0.7957441586  W2        4920            0.0000000000
     14760      4920  TIP3      H2             35.7213412922      -11.7727263765        0.1609558414  W2        4920            0.0000000000
     14761      4921  TIP3      OH2            35.9857812922      -11.1374063765        2.0145958414  W2        4921            0.0000000000
     14762      4921  TIP3      H1             35.1429112922      -10.8693663765        2.3805758414  W2        4921            0.0000000000
     14763      4921  TIP3      H2             36.4282112922      -10.3152163765        1.8037058414  W2        4921            0.0000000000
     14764      4922  TIP3      OH2            20.2670012922      -12.6895363765        5.4915158414  W2        4922            0.0000000000
     14765      4922  TIP3      H1             21.1864912922      -12.8117063765        5.7278258414  W2        4922            0.0000000000
     14766      4922  TIP3      H2             19.8174512922      -13.4395663765        5.8808658414  W2        4922            0.0000000000
     14767      4923  TIP3      OH2            35.9582412922      -15.1927463765       -6.1490341586  W2        4923            0.0000000000
     14768      4923  TIP3      H1             36.1407412922      -15.6415963765       -5.3235341586  W2        4923            0.0000000000
     14769      4923  TIP3      H2             35.3585312922      -15.7773063765       -6.6125741586  W2        4923            0.0000000000
     14770      4924  TIP3      OH2            21.4882512922      -14.3773763765       -1.6171941586  W2        4924            0.0000000000
     14771      4924  TIP3      H1             21.9334112922      -15.1691263765       -1.3152241586  W2        4924            0.0000000000
     14772      4924  TIP3      H2             21.9545512922      -13.6608563765       -1.1866341586  W2        4924            0.0000000000
     14773      4925  TIP3      OH2            19.7922812922      -11.3780763765       -0.5481741586  W2        4925            0.0000000000
     14774      4925  TIP3      H1             20.2842612922      -11.5990263765       -1.3389741586  W2        4925            0.0000000000
     14775      4925  TIP3      H2             20.1543712922      -10.5377363765       -0.2672241586  W2        4925            0.0000000000
     14776      4926  TIP3      OH2            20.1059312922      -15.1201663765       -6.4939341586  W2        4926            0.0000000000
     14777      4926  TIP3      H1             19.1807712922      -14.9115063765       -6.6233841586  W2        4926            0.0000000000
     14778      4926  TIP3      H2             20.5599212922      -14.6360863765       -7.1837041586  W2        4926            0.0000000000
     14779      4927  TIP3      OH2            34.8766512922       -0.1359963765       -4.5481941586  W2        4927            0.0000000000
     14780      4927  TIP3      H1             35.5289412922       -0.4837863765       -5.1562841586  W2        4927            0.0000000000
     14781      4927  TIP3      H2             35.3870312922        0.3523236235       -3.9022241586  W2        4927            0.0000000000
     14782      4928  TIP3      OH2            20.0694712922      -16.3822663765        1.8503158414  W2        4928            0.0000000000
     14783      4928  TIP3      H1             19.4045212922      -16.6282363765        2.4934058414  W2        4928            0.0000000000
     14784      4928  TIP3      H2             19.6266012922      -15.7602263765        1.2731158414  W2        4928            0.0000000000
     14785      4929  TIP3      OH2            22.2614012922       -3.2068563765        5.9948958414  W2        4929            0.0000000000
     14786      4929  TIP3      H1             21.4406512922       -3.0322063765        5.5343658414  W2        4929            0.0000000000
     14787      4929  TIP3      H2             22.0091812922       -3.2803863765        6.9153358414  W2        4929            0.0000000000
     14788      4930  TIP3      OH2            25.2156912922       -2.2327363765        2.2532958414  W2        4930            0.0000000000
     14789      4930  TIP3      H1             24.7908012922       -1.4228863765        1.9707558414  W2        4930            0.0000000000
     14790      4930  TIP3      H2             26.1199712922       -2.1473263765        1.9512758414  W2        4930            0.0000000000
     14791      4931  TIP3      OH2            29.5268312922       -0.8337363765        5.2126658414  W2        4931            0.0000000000
     14792      4931  TIP3      H1             29.7115812922       -1.1671263765        6.0906958414  W2        4931            0.0000000000
     14793      4931  TIP3      H2             30.3732812922       -0.5238763765        4.8905858414  W2        4931            0.0000000000
     14794      4932  TIP3      OH2            31.8718712922        0.4521536235        4.4568058414  W2        4932            0.0000000000
     14795      4932  TIP3      H1             32.5487612922       -0.1806163765        4.2167258414  W2        4932            0.0000000000
     14796      4932  TIP3      H2             32.1937512922        0.8532036235        5.2641358414  W2        4932            0.0000000000
     14797      4933  TIP3      OH2            22.6173612922        1.0236536235        2.3008258414  W2        4933            0.0000000000
     14798      4933  TIP3      H1             21.8970012922        1.4637536235        1.8495958414  W2        4933            0.0000000000
     14799      4933  TIP3      H2             22.2517612922        0.7731236235        3.1492258414  W2        4933            0.0000000000
     14800      4934  TIP3      OH2            25.0846212922        0.6240436235        1.3305458414  W2        4934            0.0000000000
     14801      4934  TIP3      H1             24.2198412922        0.6958936235        1.7345558414  W2        4934            0.0000000000
     14802      4934  TIP3      H2             25.0295212922        1.1707736235        0.5467958414  W2        4934            0.0000000000
     14803      4935  TIP3      OH2            29.7951812922        0.5119336235        0.5061458414  W2        4935            0.0000000000
     14804      4935  TIP3      H1             29.3385812922        1.0409036235       -0.1480141586  W2        4935            0.0000000000
     14805      4935  TIP3      H2             29.9579812922        1.1150736235        1.2313758414  W2        4935            0.0000000000
     14806      4936  TIP3      OH2            32.1228112922       -0.6101063765        1.4511758414  W2        4936            0.0000000000
     14807      4936  TIP3      H1             31.2181812922       -0.4450863765        1.1853858414  W2        4936            0.0000000000
     14808      4936  TIP3      H2             32.5516712922        0.2431136235        1.3855158414  W2        4936            0.0000000000
     14809      4937  TIP3      OH2            34.7270012922        0.9598036235        1.7459558414  W2        4937            0.0000000000
     14810      4937  TIP3      H1             34.5452012922        1.8756936235        1.5354458414  W2        4937            0.0000000000
     14811      4937  TIP3      H2             34.9037812922        0.5495136235        0.8994158414  W2        4937            0.0000000000
     14812      4938  TIP3      OH2            22.0321712922       -0.3530963765       -0.7889941586  W2        4938            0.0000000000
     14813      4938  TIP3      H1             22.0137712922       -0.7785863765        0.0682358414  W2        4938            0.0000000000
     14814      4938  TIP3      H2             22.8369612922       -0.6715963765       -1.1977741586  W2        4938            0.0000000000
     14815      4939  TIP3      OH2            24.1734812922       -1.6432263765       -2.1340041586  W2        4939            0.0000000000
     14816      4939  TIP3      H1             23.9545512922       -2.5594863765       -1.9644041586  W2        4939            0.0000000000
     14817      4939  TIP3      H2             24.9977012922       -1.5031863765       -1.6678641586  W2        4939            0.0000000000
     14818      4940  TIP3      OH2            26.7107312922       -1.1732963765       -1.2852041586  W2        4940            0.0000000000
     14819      4940  TIP3      H1             26.9233012922       -2.0613963765       -1.5721141586  W2        4940            0.0000000000
     14820      4940  TIP3      H2             26.7752412922       -1.2075263765       -0.3308041586  W2        4940            0.0000000000
     14821      4941  TIP3      OH2            30.2191012922      -15.5092363765       -2.1408741586  W2        4941            0.0000000000
     14822      4941  TIP3      H1             29.5447812922      -16.1386763765       -1.8852941586  W2        4941            0.0000000000
     14823      4941  TIP3      H2             30.7830212922      -15.9933463765       -2.7440841586  W2        4941            0.0000000000
     14824      4942  TIP3      OH2            35.3618212922      -17.4018363765       -2.0281641586  W2        4942            0.0000000000
     14825      4942  TIP3      H1             35.9655812922      -16.8542963765       -2.5300641586  W2        4942            0.0000000000
     14826      4942  TIP3      H2             34.4920212922      -17.0827963765       -2.2687541586  W2        4942            0.0000000000
     14827      4943  TIP3      OH2            22.5458512922      -16.8752063765       -4.3188841586  W2        4943            0.0000000000
     14828      4943  TIP3      H1             21.7688312922      -17.1097163765       -4.8262941586  W2        4943            0.0000000000
     14829      4943  TIP3      H2             23.0762112922      -17.6719963765       -4.3100841586  W2        4943            0.0000000000
     14830      4944  TIP3      OH2            21.3821912922      -17.0773963765       -8.5152741586  W2        4944            0.0000000000
     14831      4944  TIP3      H1             21.8212612922      -16.4663463765       -9.1069241586  W2        4944            0.0000000000
     14832      4944  TIP3      H2             20.7484312922      -16.5389863765       -8.0412741586  W2        4944            0.0000000000
     14833      4945  TIP3      OH2            27.1251112922      -16.9484963765       -4.5055741586  W2        4945            0.0000000000
     14834      4945  TIP3      H1             27.9994512922      -16.5600663765       -4.5351441586  W2        4945            0.0000000000
     14835      4945  TIP3      H2             26.9891912922      -17.1637163765       -3.5828541586  W2        4945            0.0000000000
     14836      4946  TIP3      OH2            32.6819512922      -16.9185163765       -2.8564041586  W2        4946            0.0000000000
     14837      4946  TIP3      H1             32.7581112922      -16.8233563765       -3.8058041586  W2        4946            0.0000000000
     14838      4946  TIP3      H2             32.4068712922      -17.8262263765       -2.7274941586  W2        4946            0.0000000000
     14839      4947  TIP3      OH2            34.0352112922      -16.8927363765       -7.1639041586  W2        4947            0.0000000000
     14840      4947  TIP3      H1             33.3323212922      -16.2778163765       -7.3737641586  W2        4947            0.0000000000
     14841      4947  TIP3      H2             33.5903512922      -17.7300663765       -7.0328141586  W2        4947            0.0000000000
     14842      4948  TIP3      OH2            21.2831412922       -1.1291763765       -7.6177641586  W2        4948            0.0000000000
     14843      4948  TIP3      H1             20.5981312922       -1.1672863765       -8.2852541586  W2        4948            0.0000000000
     14844      4948  TIP3      H2             21.2868612922       -0.2164163765       -7.3295541586  W2        4948            0.0000000000
     14845      4949  TIP3      OH2            23.2431012922      -15.1612463765      -10.0728641586  W2        4949            0.0000000000
     14846      4949  TIP3      H1             23.7344412922      -15.7910063765      -10.6003141586  W2        4949            0.0000000000
     14847      4949  TIP3      H2             23.8667312922      -14.8653063765       -9.4097441586  W2        4949            0.0000000000
     14848      4950  TIP3      OH2            28.2691112922      -14.8680963765       -7.6158141586  W2        4950            0.0000000000
     14849      4950  TIP3      H1             28.4472412922      -15.5147763765       -6.9329541586  W2        4950            0.0000000000
     14850      4950  TIP3      H2             28.2157312922      -14.0343263765       -7.1487041586  W2        4950            0.0000000000
     14851      4951  TIP3      OH2            30.1474912922        0.0803136235       -9.2201441586  W2        4951            0.0000000000
     14852      4951  TIP3      H1             31.0135112922        0.4470536235       -9.3983241586  W2        4951            0.0000000000
     14853      4951  TIP3      H2             29.9007712922       -0.3588863765      -10.0340641586  W2        4951            0.0000000000
     14854      4952  TIP3      OH2            22.5036512922      -16.3610163765        5.1987358414  W2        4952            0.0000000000
     14855      4952  TIP3      H1             22.1374712922      -17.1267563765        5.6412058414  W2        4952            0.0000000000
     14856      4952  TIP3      H2             23.4165012922      -16.3319963765        5.4852458414  W2        4952            0.0000000000
     14857      4953  TIP3      OH2            24.4767312922      -17.0105763765        6.7344458414  W2        4953            0.0000000000
     14858      4953  TIP3      H1             25.3750912922      -17.2845563765        6.5497858414  W2        4953            0.0000000000
     14859      4953  TIP3      H2             24.0900412922      -17.7529763765        7.1987058414  W2        4953            0.0000000000
     14860      4954  TIP3      OH2            23.1012612922       -0.2090963765      -10.5925541586  W2        4954            0.0000000000
     14861      4954  TIP3      H1             22.8337212922        0.0771936235       -9.7192441586  W2        4954            0.0000000000
     14862      4954  TIP3      H2             23.8725212922       -0.7551763765      -10.4403041586  W2        4954            0.0000000000
     14863      4955  TIP3      OH2            32.8979612922      -17.6780463765        6.9167258414  W2        4955            0.0000000000
     14864      4955  TIP3      H1             32.9746812922      -18.1039763765        7.7704958414  W2        4955            0.0000000000
     14865      4955  TIP3      H2             33.7916212922      -17.6645763765        6.5740758414  W2        4955            0.0000000000
     14866      4956  TIP3      OH2            36.0740712922       -1.6054163765        5.6091458414  W2        4956            0.0000000000
     14867      4956  TIP3      H1             35.2922612922       -1.7916163765        5.0892058414  W2        4956            0.0000000000
     14868      4956  TIP3      H2             36.0020612922       -0.6759863765        5.8263958414  W2        4956            0.0000000000
     14869      4957  TIP3      OH2           -24.9438887078       11.1370236235       -4.3601341586  W2        4957            0.0000000000
     14870      4957  TIP3      H1            -24.8547787078       12.0808436235       -4.4924241586  W2        4957            0.0000000000
     14871      4957  TIP3      H2            -25.5821287078       10.8616636235       -5.0181941586  W2        4957            0.0000000000
     14872      4958  TIP3      OH2           -26.0107587078       10.3920936235       -0.9413141586  W2        4958            0.0000000000
     14873      4958  TIP3      H1            -26.0490087078        9.7457236235       -0.2363541586  W2        4958            0.0000000000
     14874      4958  TIP3      H2            -26.3331087078        9.9255336235       -1.7124441586  W2        4958            0.0000000000
     14875      4959  TIP3      OH2           -33.6422587078       10.0063036235        0.6516758414  W2        4959            0.0000000000
     14876      4959  TIP3      H1            -33.6010487078        9.3806336235        1.3749158414  W2        4959            0.0000000000
     14877      4959  TIP3      H2            -32.9394887078       10.6301636235        0.8337158414  W2        4959            0.0000000000
     14878      4960  TIP3      OH2           -22.3047387078       13.3311336235       -2.6398041586  W2        4960            0.0000000000
     14879      4960  TIP3      H1            -22.7454687078       12.6107336235       -2.1892441586  W2        4960            0.0000000000
     14880      4960  TIP3      H2            -22.3177687078       14.0518536235       -2.0100341586  W2        4960            0.0000000000
     14881      4961  TIP3      OH2           -32.7189487078       14.4561936235       -0.8134141586  W2        4961            0.0000000000
     14882      4961  TIP3      H1            -33.0884287078       13.6542436235       -1.1829841586  W2        4961            0.0000000000
     14883      4961  TIP3      H2            -31.7778387078       14.2876836235       -0.7670741586  W2        4961            0.0000000000
     14884      4962  TIP3      OH2           -36.1088987078        8.1164536235       -5.4205341586  W2        4962            0.0000000000
     14885      4962  TIP3      H1            -36.5565587078        8.9623236235       -5.4388841586  W2        4962            0.0000000000
     14886      4962  TIP3      H2            -36.6697787078        7.5368736235       -5.9360241586  W2        4962            0.0000000000
     14887      4963  TIP3      OH2           -35.3982887078       10.2784136235       -3.2947341586  W2        4963            0.0000000000
     14888      4963  TIP3      H1            -35.1849387078        9.5085736235       -2.7674341586  W2        4963            0.0000000000
     14889      4963  TIP3      H2            -34.6605287078       10.3680836235       -3.8979741586  W2        4963            0.0000000000
     14890      4964  TIP3      OH2           -25.1931887078       18.4353036235       -2.4277641586  W2        4964            0.0000000000
     14891      4964  TIP3      H1            -24.5735487078       17.7587736235       -2.7008441586  W2        4964            0.0000000000
     14892      4964  TIP3      H2            -25.4014487078       18.2173836235       -1.5192741586  W2        4964            0.0000000000
     14893      4965  TIP3      OH2           -27.6213187078       12.8242336235       -0.5352141586  W2        4965            0.0000000000
     14894      4965  TIP3      H1            -27.3175287078       12.1383736235       -1.1298041586  W2        4965            0.0000000000
     14895      4965  TIP3      H2            -26.8999187078       12.9431036235        0.0825858414  W2        4965            0.0000000000
     14896      4966  TIP3      OH2           -18.9583387078        4.4257636235        0.3254058414  W2        4966            0.0000000000
     14897      4966  TIP3      H1            -18.9091187078        5.0358836235        1.0613158414  W2        4966            0.0000000000
     14898      4966  TIP3      H2            -18.5328287078        4.8868536235       -0.3974841586  W2        4966            0.0000000000
     14899      4967  TIP3      OH2           -24.4806187078        7.2184736235       -0.2077341586  W2        4967            0.0000000000
     14900      4967  TIP3      H1            -24.3380287078        6.2721736235       -0.1875741586  W2        4967            0.0000000000
     14901      4967  TIP3      H2            -24.5867187078        7.4254536235       -1.1362441586  W2        4967            0.0000000000
     14902      4968  TIP3      OH2           -31.3257887078        5.3201136235       -2.9352541586  W2        4968            0.0000000000
     14903      4968  TIP3      H1            -31.2826787078        6.1799636235       -3.3536241586  W2        4968            0.0000000000
     14904      4968  TIP3      H2            -31.7833787078        4.7675836235       -3.5689341586  W2        4968            0.0000000000
     14905      4969  TIP3      OH2           -23.6035187078        5.4506736235       -4.5344241586  W2        4969            0.0000000000
     14906      4969  TIP3      H1            -22.9570887078        5.1219936235       -3.9096641586  W2        4969            0.0000000000
     14907      4969  TIP3      H2            -23.0935787078        5.9685736235       -5.1572841586  W2        4969            0.0000000000
     14908      4970  TIP3      OH2           -34.7056387078        7.7166936235       -2.1731141586  W2        4970            0.0000000000
     14909      4970  TIP3      H1            -34.0519787078        7.1668636235       -1.7411041586  W2        4970            0.0000000000
     14910      4970  TIP3      H2            -34.6817087078        7.4425936235       -3.0899141586  W2        4970            0.0000000000
     14911      4971  TIP3      OH2           -29.5491887078        9.2668236235       -2.9579641586  W2        4971            0.0000000000
     14912      4971  TIP3      H1            -28.9330887078        8.7403636235       -2.4485641586  W2        4971            0.0000000000
     14913      4971  TIP3      H2            -30.1353087078        8.6266936235       -3.3616041586  W2        4971            0.0000000000
     14914      4972  TIP3      OH2           -18.5668787078        5.9036836235        2.5613858414  W2        4972            0.0000000000
     14915      4972  TIP3      H1            -19.2554187078        6.5617536235        2.4660458414  W2        4972            0.0000000000
     14916      4972  TIP3      H2            -18.5514187078        5.7064736235        3.4979258414  W2        4972            0.0000000000
     14917      4973  TIP3      OH2           -32.5155987078        4.2379536235        1.1388258414  W2        4973            0.0000000000
     14918      4973  TIP3      H1            -32.7344287078        4.7680136235        0.3724258414  W2        4973            0.0000000000
     14919      4973  TIP3      H2            -33.1835087078        4.4645036235        1.7859658414  W2        4973            0.0000000000
     14920      4974  TIP3      OH2           -25.1466187078       13.7380636235       -5.3172641586  W2        4974            0.0000000000
     14921      4974  TIP3      H1            -25.4421087078       13.4152936235       -6.1685741586  W2        4974            0.0000000000
     14922      4974  TIP3      H2            -25.4708387078       14.6377336235       -5.2760041586  W2        4974            0.0000000000
     14923      4975  TIP3      OH2           -29.9464587078       11.9135236235        1.4261958414  W2        4975            0.0000000000
     14924      4975  TIP3      H1            -30.6865487078       12.5116736235        1.5297158414  W2        4975            0.0000000000
     14925      4975  TIP3      H2            -29.2325087078       12.4674836235        1.1105558414  W2        4975            0.0000000000
     14926      4976  TIP3      OH2           -21.8396787078        4.7416036235       -2.5538341586  W2        4976            0.0000000000
     14927      4976  TIP3      H1            -22.0548787078        3.9759436235       -2.0212341586  W2        4976            0.0000000000
     14928      4976  TIP3      H2            -21.1839387078        5.2140636235       -2.0409841586  W2        4976            0.0000000000
     14929      4977  TIP3      OH2           -32.9218687078        6.1301336235       -0.9089541586  W2        4977            0.0000000000
     14930      4977  TIP3      H1            -32.3082387078        6.7628936235       -0.5357141586  W2        4977            0.0000000000
     14931      4977  TIP3      H2            -32.4097987078        5.6576336235       -1.5652641586  W2        4977            0.0000000000
     14932      4978  TIP3      OH2           -31.5390287078       13.8778236235        2.2133458414  W2        4978            0.0000000000
     14933      4978  TIP3      H1            -31.5442687078       14.7571736235        1.8352758414  W2        4978            0.0000000000
     14934      4978  TIP3      H2            -32.3926187078       13.7942336235        2.6383358414  W2        4978            0.0000000000
     14935      4979  TIP3      OH2           -35.4179387078       13.5486136235       -7.0047241586  W2        4979            0.0000000000
     14936      4979  TIP3      H1            -35.6898487078       13.7777136235       -7.8934341586  W2        4979            0.0000000000
     14937      4979  TIP3      H2            -35.3723687078       14.3864936235       -6.5441941586  W2        4979            0.0000000000
     14938      4980  TIP3      OH2           -21.7929687078       15.1702036235       -0.2918741586  W2        4980            0.0000000000
     14939      4980  TIP3      H1            -22.7345987078       15.2285936235       -0.1301841586  W2        4980            0.0000000000
     14940      4980  TIP3      H2            -21.5163587078       16.0762536235       -0.4289041586  W2        4980            0.0000000000
     14941      4981  TIP3      OH2           -21.4922687078        3.4567336235        1.1255158414  W2        4981            0.0000000000
     14942      4981  TIP3      H1            -22.2283487078        4.0674436235        1.0876458414  W2        4981            0.0000000000
     14943      4981  TIP3      H2            -20.8088687078        3.8716336235        0.5991558414  W2        4981            0.0000000000
     14944      4982  TIP3      OH2           -28.4891287078        1.5434636235       -1.4086841586  W2        4982            0.0000000000
     14945      4982  TIP3      H1            -28.6067087078        0.5950636235       -1.4628541586  W2        4982            0.0000000000
     14946      4982  TIP3      H2            -29.3441187078        1.8760736235       -1.1355741586  W2        4982            0.0000000000
     14947      4983  TIP3      OH2           -23.5408487078       16.9515536235       -3.6667141586  W2        4983            0.0000000000
     14948      4983  TIP3      H1            -23.1156187078       16.2443436235       -4.1517541586  W2        4983            0.0000000000
     14949      4983  TIP3      H2            -23.2238487078       17.7528236235       -4.0834941586  W2        4983            0.0000000000
     14950      4984  TIP3      OH2           -22.3811987078       14.8524036235       -5.1580541586  W2        4984            0.0000000000
     14951      4984  TIP3      H1            -22.6387187078       14.1624136235       -5.7694641586  W2        4984            0.0000000000
     14952      4984  TIP3      H2            -22.3101187078       14.4095236235       -4.3124641586  W2        4984            0.0000000000
     14953      4985  TIP3      OH2           -20.6951787078       13.4190736235        3.3192958414  W2        4985            0.0000000000
     14954      4985  TIP3      H1            -20.5555487078       12.8273236235        2.5799958414  W2        4985            0.0000000000
     14955      4985  TIP3      H2            -20.5278987078       14.2916636235        2.9631758414  W2        4985            0.0000000000
     14956      4986  TIP3      OH2           -26.2226387078       10.3810236235       -6.9081041586  W2        4986            0.0000000000
     14957      4986  TIP3      H1            -26.9340887078       10.9159936235       -7.2600541586  W2        4986            0.0000000000
     14958      4986  TIP3      H2            -25.5316787078       10.4362336235       -7.5682141586  W2        4986            0.0000000000
     14959      4987  TIP3      OH2           -26.1687187078        8.8384536235       -9.8696041586  W2        4987            0.0000000000
     14960      4987  TIP3      H1            -25.4677287078        8.8611436235       -9.2182041586  W2        4987            0.0000000000
     14961      4987  TIP3      H2            -25.8664287078        8.2104236235      -10.5256741586  W2        4987            0.0000000000
     14962      4988  TIP3      OH2           -18.8532487078        9.7588736235        1.3853358414  W2        4988            0.0000000000
     14963      4988  TIP3      H1            -19.5058387078       10.4534336235        1.4744258414  W2        4988            0.0000000000
     14964      4988  TIP3      H2            -18.3882187078        9.9689636235        0.5754958414  W2        4988            0.0000000000
     14965      4989  TIP3      OH2           -22.8168687078       10.5903536235       -5.9565141586  W2        4989            0.0000000000
     14966      4989  TIP3      H1            -23.5487687078       10.8187236235       -5.3834541586  W2        4989            0.0000000000
     14967      4989  TIP3      H2            -22.3696487078        9.8766236235       -5.5017641586  W2        4989            0.0000000000
     14968      4990  TIP3      OH2           -22.9195187078        8.7646136235        3.1111858414  W2        4990            0.0000000000
     14969      4990  TIP3      H1            -22.8396087078        9.5280536235        3.6830358414  W2        4990            0.0000000000
     14970      4990  TIP3      H2            -23.5207487078        9.0438536235        2.4206958414  W2        4990            0.0000000000
     14971      4991  TIP3      OH2           -31.1714987078       11.2209736235       -4.0740141586  W2        4991            0.0000000000
     14972      4991  TIP3      H1            -31.5019787078       10.8503136235       -4.8923141586  W2        4991            0.0000000000
     14973      4991  TIP3      H2            -30.5830887078       10.5503736235       -3.7271841586  W2        4991            0.0000000000
     14974      4992  TIP3      OH2           -29.8047487078       14.6490336235       -1.3927941586  W2        4992            0.0000000000
     14975      4992  TIP3      H1            -29.8996187078       14.0703436235       -2.1493341586  W2        4992            0.0000000000
     14976      4992  TIP3      H2            -29.0753887078       14.2776036235       -0.8965141586  W2        4992            0.0000000000
     14977      4993  TIP3      OH2           -30.8049487078        9.9895336235       -0.4405141586  W2        4993            0.0000000000
     14978      4993  TIP3      H1            -30.2396987078       10.1109536235       -1.2033941586  W2        4993            0.0000000000
     14979      4993  TIP3      H2            -30.4860587078       10.6270336235        0.1983358414  W2        4993            0.0000000000
     14980      4994  TIP3      OH2           -24.4957287078       15.4927236235        0.2935358414  W2        4994            0.0000000000
     14981      4994  TIP3      H1            -24.7360687078       16.1550336235        0.9414558414  W2        4994            0.0000000000
     14982      4994  TIP3      H2            -24.6939087078       14.6582436235        0.7184958414  W2        4994            0.0000000000
     14983      4995  TIP3      OH2           -29.9248787078       14.3888036235        4.2766758414  W2        4995            0.0000000000
     14984      4995  TIP3      H1            -30.2361287078       15.1711236235        4.7319958414  W2        4995            0.0000000000
     14985      4995  TIP3      H2            -30.5748587078       14.2357136235        3.5908758414  W2        4995            0.0000000000
     14986      4996  TIP3      OH2           -23.9459187078        9.7526436235       -8.2713941586  W2        4996            0.0000000000
     14987      4996  TIP3      H1            -23.3663687078        9.9026736235       -7.5245041586  W2        4996            0.0000000000
     14988      4996  TIP3      H2            -23.5319187078       10.2233836235       -8.9947541586  W2        4996            0.0000000000
     14989      4997  TIP3      OH2           -33.0048887078       10.5869136235        3.5052458414  W2        4997            0.0000000000
     14990      4997  TIP3      H1            -32.9345687078       11.2375936235        4.2037458414  W2        4997            0.0000000000
     14991      4997  TIP3      H2            -33.8956687078       10.6896636235        3.1703358414  W2        4997            0.0000000000
     14992      4998  TIP3      OH2           -26.2194287078       16.4894936235       -4.8360841586  W2        4998            0.0000000000
     14993      4998  TIP3      H1            -25.7456687078       16.7851236235       -4.0586641586  W2        4998            0.0000000000
     14994      4998  TIP3      H2            -26.7824987078       17.2276536235       -5.0691241586  W2        4998            0.0000000000
     14995      4999  TIP3      OH2           -31.6852887078       16.4603036235        5.0400558414  W2        4999            0.0000000000
     14996      4999  TIP3      H1            -31.6777587078       16.3242736235        4.0926058414  W2        4999            0.0000000000
     14997      4999  TIP3      H2            -32.6012487078       16.3431136235        5.2920558414  W2        4999            0.0000000000
     14998      5000  TIP3      OH2           -20.2470787078        1.5026836235       -8.4584241586  W2        5000            0.0000000000
     14999      5000  TIP3      H1            -21.1470087078        1.6415836235       -8.1633641586  W2        5000            0.0000000000
     15000      5000  TIP3      H2            -19.9952387078        2.3341436235       -8.8602541586  W2        5000            0.0000000000
     15001      5001  TIP3      OH2           -32.1812287078       10.2904036235       -6.4847341586  W2        5001            0.0000000000
     15002      5001  TIP3      H1            -32.4730987078       11.0585736235       -6.9756041586  W2        5001            0.0000000000
     15003      5001  TIP3      H2            -32.8557087078        9.6310236235       -6.6475941586  W2        5001            0.0000000000
     15004      5002  TIP3      OH2           -19.0579387078       15.8689236235      -10.0820341586  W2        5002            0.0000000000
     15005      5002  TIP3      H1            -18.9845887078       16.8079436235       -9.9115041586  W2        5002            0.0000000000
     15006      5002  TIP3      H2            -18.1524287078       15.5637836235      -10.1383041586  W2        5002            0.0000000000
     15007      5003  TIP3      OH2           -36.0882187078       12.6533236235        2.3302458414  W2        5003            0.0000000000
     15008      5003  TIP3      H1            -36.5893787078       12.6252636235        1.5152158414  W2        5003            0.0000000000
     15009      5003  TIP3      H2            -36.0828487078       11.7476436235        2.6399758414  W2        5003            0.0000000000
     15010      5004  TIP3      OH2           -36.3379487078       15.4337036235       -0.7857341586  W2        5004            0.0000000000
     15011      5004  TIP3      H1            -35.3918887078       15.2894036235       -0.8047841586  W2        5004            0.0000000000
     15012      5004  TIP3      H2            -36.4503187078       16.2179836235       -0.2486141586  W2        5004            0.0000000000
     15013      5005  TIP3      OH2           -18.1400987078       16.0996736235        4.8966358414  W2        5005            0.0000000000
     15014      5005  TIP3      H1            -18.1894187078       15.1444836235        4.8593958414  W2        5005            0.0000000000
     15015      5005  TIP3      H2            -18.9668687078       16.3672036235        5.2980158414  W2        5005            0.0000000000
     15016      5006  TIP3      OH2           -27.1616987078       15.6735936235        3.7727758414  W2        5006            0.0000000000
     15017      5006  TIP3      H1            -27.0742387078       16.5000536235        4.2476858414  W2        5006            0.0000000000
     15018      5006  TIP3      H2            -28.0251887078       15.3439736235        4.0217058414  W2        5006            0.0000000000
     15019      5007  TIP3      OH2           -26.7471187078       19.4459636235       -6.4211641586  W2        5007            0.0000000000
     15020      5007  TIP3      H1            -26.8225187078       19.3246836235       -7.3676441586  W2        5007            0.0000000000
     15021      5007  TIP3      H2            -26.7142487078       20.3952336235       -6.3027041586  W2        5007            0.0000000000
     15022      5008  TIP3      OH2           -33.0937387078       18.2346636235       -4.6402641586  W2        5008            0.0000000000
     15023      5008  TIP3      H1            -32.9416987078       17.8867036235       -3.7616141586  W2        5008            0.0000000000
     15024      5008  TIP3      H2            -33.9446987078       17.8783936235       -4.8955441586  W2        5008            0.0000000000
     15025      5009  TIP3      OH2           -23.6455187078       18.5999836235       -9.4189241586  W2        5009            0.0000000000
     15026      5009  TIP3      H1            -23.2706787078       17.8555936235       -9.8896641586  W2        5009            0.0000000000
     15027      5009  TIP3      H2            -23.6411487078       18.3300436235       -8.5005941586  W2        5009            0.0000000000
     15028      5010  TIP3      OH2           -23.9767087078       18.5256936235       -6.6697041586  W2        5010            0.0000000000
     15029      5010  TIP3      H1            -24.9117287078       18.6258836235       -6.4910041586  W2        5010            0.0000000000
     15030      5010  TIP3      H2            -23.6965187078       17.8162936235       -6.0913841586  W2        5010            0.0000000000
     15031      5011  TIP3      OH2           -20.9881187078        7.5929236235        5.3768558414  W2        5011            0.0000000000
     15032      5011  TIP3      H1            -21.3954387078        8.0734836235        4.6561858414  W2        5011            0.0000000000
     15033      5011  TIP3      H2            -20.9475487078        6.6875236235        5.0689358414  W2        5011            0.0000000000
     15034      5012  TIP3      OH2           -33.8391687078       13.9768636235        3.3735258414  W2        5012            0.0000000000
     15035      5012  TIP3      H1            -33.6230387078       13.6154236235        4.2331058414  W2        5012            0.0000000000
     15036      5012  TIP3      H2            -34.6946987078       13.6022436235        3.1638758414  W2        5012            0.0000000000
     15037      5013  TIP3      OH2           -31.2203687078        2.4469136235       -0.6310541586  W2        5013            0.0000000000
     15038      5013  TIP3      H1            -32.0819987078        2.3597336235       -1.0387641586  W2        5013            0.0000000000
     15039      5013  TIP3      H2            -31.2427987078        3.3029236235       -0.2032941586  W2        5013            0.0000000000
     15040      5014  TIP3      OH2           -26.5575887078        2.1689536235        2.7436458414  W2        5014            0.0000000000
     15041      5014  TIP3      H1            -26.1372787078        1.7536636235        3.4967058414  W2        5014            0.0000000000
     15042      5014  TIP3      H2            -27.4906287078        1.9902836235        2.8608458414  W2        5014            0.0000000000
     15043      5015  TIP3      OH2           -23.2310987078        5.9244736235        3.5970958414  W2        5015            0.0000000000
     15044      5015  TIP3      H1            -23.7451487078        5.7986936235        4.3946958414  W2        5015            0.0000000000
     15045      5015  TIP3      H2            -23.3866287078        6.8367836235        3.3527158414  W2        5015            0.0000000000
     15046      5016  TIP3      OH2           -22.4686087078       10.7854736235      -10.6416041586  W2        5016            0.0000000000
     15047      5016  TIP3      H1            -22.4265287078       10.5628636235      -11.5716041586  W2        5016            0.0000000000
     15048      5016  TIP3      H2            -21.6193987078       11.1841836235      -10.4516141586  W2        5016            0.0000000000
     15049      5017  TIP3      OH2           -26.8958587078        4.6612936235       -9.9712741586  W2        5017            0.0000000000
     15050      5017  TIP3      H1            -27.1493787078        4.6804536235       -9.0484641586  W2        5017            0.0000000000
     15051      5017  TIP3      H2            -27.1526487078        3.7898336235      -10.2726541586  W2        5017            0.0000000000
     15052      5018  TIP3      OH2           -31.1293587078        7.4123636235        0.4639658414  W2        5018            0.0000000000
     15053      5018  TIP3      H1            -31.7711487078        7.3720936235        1.1729758414  W2        5018            0.0000000000
     15054      5018  TIP3      H2            -31.0921587078        8.3388336235        0.2262658414  W2        5018            0.0000000000
     15055      5019  TIP3      OH2           -31.1324487078        7.6333736235       -4.6240341586  W2        5019            0.0000000000
     15056      5019  TIP3      H1            -32.0251587078        7.2929836235       -4.6826541586  W2        5019            0.0000000000
     15057      5019  TIP3      H2            -30.6817887078        7.2564636235       -5.3797141586  W2        5019            0.0000000000
     15058      5020  TIP3      OH2           -25.5968987078        8.0494036235       -5.8069541586  W2        5020            0.0000000000
     15059      5020  TIP3      H1            -26.0058687078        8.8642636235       -6.0984741586  W2        5020            0.0000000000
     15060      5020  TIP3      H2            -24.8762787078        7.9094136235       -6.4212441586  W2        5020            0.0000000000
     15061      5021  TIP3      OH2           -26.4947387078        8.2250436235        5.6811158414  W2        5021            0.0000000000
     15062      5021  TIP3      H1            -27.0573587078        7.5202036235        6.0018958414  W2        5021            0.0000000000
     15063      5021  TIP3      H2            -25.6683987078        8.1042336235        6.1488758414  W2        5021            0.0000000000
     15064      5022  TIP3      OH2           -24.5921287078        7.4954436235       -2.9929841586  W2        5022            0.0000000000
     15065      5022  TIP3      H1            -24.7876787078        8.1011236235       -3.7079241586  W2        5022            0.0000000000
     15066      5022  TIP3      H2            -24.4108687078        6.6619636235       -3.4273541586  W2        5022            0.0000000000
     15067      5023  TIP3      OH2           -33.3793087078        7.7327136235        2.3311658414  W2        5023            0.0000000000
     15068      5023  TIP3      H1            -33.4173687078        8.1328736235        3.1998758414  W2        5023            0.0000000000
     15069      5023  TIP3      H2            -33.8701987078        6.9159536235        2.4214558414  W2        5023            0.0000000000
     15070      5024  TIP3      OH2           -30.0135687078        5.1069436235      -10.8702341586  W2        5024            0.0000000000
     15071      5024  TIP3      H1            -30.4444987078        4.6619536235      -10.1404941586  W2        5024            0.0000000000
     15072      5024  TIP3      H2            -30.7316987078        5.4785736235      -11.3824841586  W2        5024            0.0000000000
     15073      5025  TIP3      OH2           -36.7712287078        4.8488936235       -3.8183641586  W2        5025            0.0000000000
     15074      5025  TIP3      H1            -36.1404587078        4.8201036235       -3.0989741586  W2        5025            0.0000000000
     15075      5025  TIP3      H2            -36.3217987078        4.4237636235       -4.5487741586  W2        5025            0.0000000000
     15076      5026  TIP3      OH2           -35.4970187078        5.5950936235       -8.3943241586  W2        5026            0.0000000000
     15077      5026  TIP3      H1            -35.0228487078        6.1860836235       -8.9792341586  W2        5026            0.0000000000
     15078      5026  TIP3      H2            -36.2143787078        6.1253836235       -8.0473141586  W2        5026            0.0000000000
     15079      5027  TIP3      OH2           -25.3282087078        9.1335736235        1.6782558414  W2        5027            0.0000000000
     15080      5027  TIP3      H1            -25.0047287078        8.5025436235        1.0353058414  W2        5027            0.0000000000
     15081      5027  TIP3      H2            -25.7682787078        8.5987936235        2.3389958414  W2        5027            0.0000000000
     15082      5028  TIP3      OH2           -28.5509187078        5.0611236235       -3.5376241586  W2        5028            0.0000000000
     15083      5028  TIP3      H1            -29.4618087078        5.1178036235       -3.2490241586  W2        5028            0.0000000000
     15084      5028  TIP3      H2            -28.0456287078        5.0006736235       -2.7269041586  W2        5028            0.0000000000
     15085      5029  TIP3      OH2           -33.7225787078        6.6897536235       -4.7108641586  W2        5029            0.0000000000
     15086      5029  TIP3      H1            -34.6117787078        6.7893036235       -5.0509041586  W2        5029            0.0000000000
     15087      5029  TIP3      H2            -33.4260887078        5.8480536235       -5.0570741586  W2        5029            0.0000000000
     15088      5030  TIP3      OH2           -30.0693987078        6.6900136235       -7.0544041586  W2        5030            0.0000000000
     15089      5030  TIP3      H1            -29.1378487078        6.8190136235       -6.8760941586  W2        5030            0.0000000000
     15090      5030  TIP3      H2            -30.2843687078        7.3594436235       -7.7039341586  W2        5030            0.0000000000
     15091      5031  TIP3      OH2           -24.1457287078        4.2957536235       -0.2734441586  W2        5031            0.0000000000
     15092      5031  TIP3      H1            -24.8225687078        4.4270636235        0.3905258414  W2        5031            0.0000000000
     15093      5031  TIP3      H2            -24.6312387078        4.1407036235       -1.0836741586  W2        5031            0.0000000000
     15094      5032  TIP3      OH2           -31.3953787078        7.8842336235       -9.4877941586  W2        5032            0.0000000000
     15095      5032  TIP3      H1            -31.9378687078        7.5046136235      -10.1790341586  W2        5032            0.0000000000
     15096      5032  TIP3      H2            -30.5618887078        8.0787036235       -9.9163841586  W2        5032            0.0000000000
     15097      5033  TIP3      OH2           -20.8582187078       19.9672936235        6.0033158414  W2        5033            0.0000000000
     15098      5033  TIP3      H1            -20.6583487078       20.3914836235        5.1688458414  W2        5033            0.0000000000
     15099      5033  TIP3      H2            -20.2028487078       20.3111136235        6.6103558414  W2        5033            0.0000000000
     15100      5034  TIP3      OH2           -33.2602387078       12.4414236235        5.6113658414  W2        5034            0.0000000000
     15101      5034  TIP3      H1            -32.5279987078       12.6960136235        6.1728158414  W2        5034            0.0000000000
     15102      5034  TIP3      H2            -34.0403687078       12.6459636235        6.1269058414  W2        5034            0.0000000000
     15103      5035  TIP3      OH2           -27.2309487078        7.8484236235       -1.6506641586  W2        5035            0.0000000000
     15104      5035  TIP3      H1            -26.6666087078        7.3020836235       -2.1977041586  W2        5035            0.0000000000
     15105      5035  TIP3      H2            -27.3786087078        7.3266136235       -0.8619041586  W2        5035            0.0000000000
     15106      5036  TIP3      OH2           -32.2289787078        3.9850336235       -5.2321841586  W2        5036            0.0000000000
     15107      5036  TIP3      H1            -32.5460287078        3.0825636235       -5.2676441586  W2        5036            0.0000000000
     15108      5036  TIP3      H2            -31.4475687078        3.9867736235       -5.7850241586  W2        5036            0.0000000000
     15109      5037  TIP3      OH2           -28.6043587078        6.2370336235        0.7633758414  W2        5037            0.0000000000
     15110      5037  TIP3      H1            -29.4398287078        6.6909836235        0.8736158414  W2        5037            0.0000000000
     15111      5037  TIP3      H2            -28.0802987078        6.5128836235        1.5153658414  W2        5037            0.0000000000
     15112      5038  TIP3      OH2           -28.0600987078       12.4498036235       -7.5519841586  W2        5038            0.0000000000
     15113      5038  TIP3      H1            -28.8049987078       11.9423336235       -7.8741941586  W2        5038            0.0000000000
     15114      5038  TIP3      H2            -28.1943787078       12.4986036235       -6.6055041586  W2        5038            0.0000000000
     15115      5039  TIP3      OH2           -20.9102087078       11.5826236235        1.2347758414  W2        5039            0.0000000000
     15116      5039  TIP3      H1            -20.2683287078       12.0392536235        0.6909958414  W2        5039            0.0000000000
     15117      5039  TIP3      H2            -21.7405187078       11.6958636235        0.7721858414  W2        5039            0.0000000000
     15118      5040  TIP3      OH2           -24.1624187078        5.2637936235       -9.3527241586  W2        5040            0.0000000000
     15119      5040  TIP3      H1            -25.1009987078        5.3753536235       -9.5038441586  W2        5040            0.0000000000
     15120      5040  TIP3      H2            -23.8652087078        6.1204836235       -9.0461541586  W2        5040            0.0000000000
     15121      5041  TIP3      OH2           -26.5408887078       12.6341336235        3.6849258414  W2        5041            0.0000000000
     15122      5041  TIP3      H1            -26.8862787078       12.2523736235        4.4918858414  W2        5041            0.0000000000
     15123      5041  TIP3      H2            -26.7408787078       13.5674936235        3.7562158414  W2        5041            0.0000000000
     15124      5042  TIP3      OH2           -23.4440687078        7.1310636235       -7.6919841586  W2        5042            0.0000000000
     15125      5042  TIP3      H1            -22.5521687078        6.9935636235       -7.3728641586  W2        5042            0.0000000000
     15126      5042  TIP3      H2            -23.3877087078        7.9216736235       -8.2286341586  W2        5042            0.0000000000
     15127      5043  TIP3      OH2           -32.9352687078       11.7448036235       -1.7821941586  W2        5043            0.0000000000
     15128      5043  TIP3      H1            -32.1905487078       11.7423736235       -2.3835441586  W2        5043            0.0000000000
     15129      5043  TIP3      H2            -32.8576087078       10.9211836235       -1.3006841586  W2        5043            0.0000000000
     15130      5044  TIP3      OH2           -25.9346887078       13.9082336235       -8.5265241586  W2        5044            0.0000000000
     15131      5044  TIP3      H1            -26.2298487078       14.7350236235       -8.1450441586  W2        5044            0.0000000000
     15132      5044  TIP3      H2            -26.6376887078       13.2889236235       -8.3303841586  W2        5044            0.0000000000
     15133      5045  TIP3      OH2           -35.9272987078       10.2054936235        3.5326558414  W2        5045            0.0000000000
     15134      5045  TIP3      H1            -35.7044387078        9.7874536235        4.3644058414  W2        5045            0.0000000000
     15135      5045  TIP3      H2            -36.5292887078        9.5929936235        3.1099358414  W2        5045            0.0000000000
     15136      5046  TIP3      OH2           -28.9108087078        9.7224836235        5.7456258414  W2        5046            0.0000000000
     15137      5046  TIP3      H1            -29.2067287078        9.5567836235        4.8505358414  W2        5046            0.0000000000
     15138      5046  TIP3      H2            -27.9792887078        9.5025136235        5.7350158414  W2        5046            0.0000000000
     15139      5047  TIP3      OH2           -24.2905287078       15.0956836235        3.6354258414  W2        5047            0.0000000000
     15140      5047  TIP3      H1            -25.1910987078       15.2789436235        3.3678158414  W2        5047            0.0000000000
     15141      5047  TIP3      H2            -24.2564187078       15.3546136235        4.5563058414  W2        5047            0.0000000000
     15142      5048  TIP3      OH2           -18.5591987078        7.3404736235       -7.9973141586  W2        5048            0.0000000000
     15143      5048  TIP3      H1            -19.1135687078        6.9442736235       -8.6695641586  W2        5048            0.0000000000
     15144      5048  TIP3      H2            -18.4588387078        8.2509936235       -8.2749841586  W2        5048            0.0000000000
     15145      5049  TIP3      OH2           -18.5959987078       13.1406436235        4.8398358414  W2        5049            0.0000000000
     15146      5049  TIP3      H1            -19.4471487078       13.3790236235        4.4724758414  W2        5049            0.0000000000
     15147      5049  TIP3      H2            -18.0056587078       13.1239636235        4.0865458414  W2        5049            0.0000000000
     15148      5050  TIP3      OH2           -20.2640287078       16.1265136235       -7.5321041586  W2        5050            0.0000000000
     15149      5050  TIP3      H1            -20.6369187078       15.3008936235       -7.2230441586  W2        5050            0.0000000000
     15150      5050  TIP3      H2            -19.9866787078       15.9434536235       -8.4297641586  W2        5050            0.0000000000
     15151      5051  TIP3      OH2           -23.1036387078       10.9344636235       -0.5109141586  W2        5051            0.0000000000
     15152      5051  TIP3      H1            -24.0319487078       10.7026536235       -0.5379841586  W2        5051            0.0000000000
     15153      5051  TIP3      H2            -22.6525287078       10.1574436235       -0.8410341586  W2        5051            0.0000000000
     15154      5052  TIP3      OH2           -30.5603287078       15.2626236235       -4.3780441586  W2        5052            0.0000000000
     15155      5052  TIP3      H1            -30.0331087078       16.0360636235       -4.5781641586  W2        5052            0.0000000000
     15156      5052  TIP3      H2            -31.4404787078       15.4875436235       -4.6796441586  W2        5052            0.0000000000
     15157      5053  TIP3      OH2           -34.8055587078       10.1250336235       -9.7908041586  W2        5053            0.0000000000
     15158      5053  TIP3      H1            -34.1895687078       10.7517536235       -9.4113241586  W2        5053            0.0000000000
     15159      5053  TIP3      H2            -35.6672987078       10.4410136235       -9.5191541586  W2        5053            0.0000000000
     15160      5054  TIP3      OH2           -29.1330987078       12.9256136235       -4.8016141586  W2        5054            0.0000000000
     15161      5054  TIP3      H1            -29.3740987078       13.8510536235       -4.7600841586  W2        5054            0.0000000000
     15162      5054  TIP3      H2            -29.8737387078       12.4667436235       -4.4052241586  W2        5054            0.0000000000
     15163      5055  TIP3      OH2           -28.6184387078       17.0749736235        1.5134958414  W2        5055            0.0000000000
     15164      5055  TIP3      H1            -28.2559687078       17.9295336235        1.2799358414  W2        5055            0.0000000000
     15165      5055  TIP3      H2            -28.0869187078       16.7831336235        2.2541258414  W2        5055            0.0000000000
     15166      5056  TIP3      OH2           -30.4500187078       17.9473736235       -5.2563941586  W2        5056            0.0000000000
     15167      5056  TIP3      H1            -31.3999687078       18.0531136235       -5.2050641586  W2        5056            0.0000000000
     15168      5056  TIP3      H2            -30.0982087078       18.7681136235       -4.9116441586  W2        5056            0.0000000000
     15169      5057  TIP3      OH2           -25.0743587078       13.1740436235        1.2140558414  W2        5057            0.0000000000
     15170      5057  TIP3      H1            -25.5002287078       12.9462136235        2.0404558414  W2        5057            0.0000000000
     15171      5057  TIP3      H2            -24.4937787078       12.4352236235        1.0315858414  W2        5057            0.0000000000
     15172      5058  TIP3      OH2           -22.8714687078       14.1030936235       -9.7120441586  W2        5058            0.0000000000
     15173      5058  TIP3      H1            -22.5181587078       13.7230736235       -8.9076941586  W2        5058            0.0000000000
     15174      5058  TIP3      H2            -23.8201187078       14.0095736235       -9.6251141586  W2        5058            0.0000000000
     15175      5059  TIP3      OH2           -22.4159387078       17.7259936235        3.6835358414  W2        5059            0.0000000000
     15176      5059  TIP3      H1            -23.0176187078       17.1702836235        3.1881658414  W2        5059            0.0000000000
     15177      5059  TIP3      H2            -22.1345687078       18.3929736235        3.0572758414  W2        5059            0.0000000000
     15178      5060  TIP3      OH2           -18.3680287078       18.5823436235       -9.5110241586  W2        5060            0.0000000000
     15179      5060  TIP3      H1            -17.6242387078       19.1683936235       -9.6508641586  W2        5060            0.0000000000
     15180      5060  TIP3      H2            -19.0622187078       19.1509236235       -9.1777841586  W2        5060            0.0000000000
     15181      5061  TIP3      OH2           -34.2933487078        4.9587636235        3.0907958414  W2        5061            0.0000000000
     15182      5061  TIP3      H1            -35.1861187078        5.2973036235        3.0231958414  W2        5061            0.0000000000
     15183      5061  TIP3      H2            -34.3920687078        4.1033736235        3.5088758414  W2        5061            0.0000000000
     15184      5062  TIP3      OH2           -22.0055387078       12.7752936235       -7.4852541586  W2        5062            0.0000000000
     15185      5062  TIP3      H1            -22.2827787078       12.0472236235       -6.9291441586  W2        5062            0.0000000000
     15186      5062  TIP3      H2            -21.0782387078       12.8944936235       -7.2799941586  W2        5062            0.0000000000
     15187      5063  TIP3      OH2           -34.6421487078       16.7632036235        1.5257358414  W2        5063            0.0000000000
     15188      5063  TIP3      H1            -34.4251187078       15.8314436235        1.4947058414  W2        5063            0.0000000000
     15189      5063  TIP3      H2            -34.3957987078       17.0377036235        2.4090158414  W2        5063            0.0000000000
     15190      5064  TIP3      OH2           -28.7806887078       15.2147036235      -11.2650441586  W2        5064            0.0000000000
     15191      5064  TIP3      H1            -28.5417087078       14.4665136235      -11.8121541586  W2        5064            0.0000000000
     15192      5064  TIP3      H2            -29.0495587078       14.8268736235      -10.4322641586  W2        5064            0.0000000000
     15193      5065  TIP3      OH2           -29.8436287078       14.7850836235       -8.8087841586  W2        5065            0.0000000000
     15194      5065  TIP3      H1            -29.6968287078       14.2650636235       -8.0186941586  W2        5065            0.0000000000
     15195      5065  TIP3      H2            -29.8464587078       15.6918436235       -8.5021941586  W2        5065            0.0000000000
     15196      5066  TIP3      OH2           -33.3905187078       12.0374136235       -8.2982441586  W2        5066            0.0000000000
     15197      5066  TIP3      H1            -34.0765887078       12.3896636235       -7.7312741586  W2        5066            0.0000000000
     15198      5066  TIP3      H2            -32.8677287078       12.8003736235       -8.5448141586  W2        5066            0.0000000000
     15199      5067  TIP3      OH2           -25.5590087078        4.6997936235        1.9806558414  W2        5067            0.0000000000
     15200      5067  TIP3      H1            -24.8602187078        4.7736636235        2.6306258414  W2        5067            0.0000000000
     15201      5067  TIP3      H2            -25.9398687078        3.8352936235        2.1349458414  W2        5067            0.0000000000
     15202      5068  TIP3      OH2           -24.7745187078        4.3519636235       -6.9221141586  W2        5068            0.0000000000
     15203      5068  TIP3      H1            -24.5546887078        4.8235036235       -7.7255741586  W2        5068            0.0000000000
     15204      5068  TIP3      H2            -24.2161187078        4.7462236235       -6.2520541586  W2        5068            0.0000000000
     15205      5069  TIP3      OH2           -27.1059087078       16.4824436235       -8.0593641586  W2        5069            0.0000000000
     15206      5069  TIP3      H1            -27.9222987078       16.9794136235       -8.0069341586  W2        5069            0.0000000000
     15207      5069  TIP3      H2            -26.5762787078       16.9577936235       -8.6994841586  W2        5069            0.0000000000
     15208      5070  TIP3      OH2           -27.5745287078        6.0798436235       -6.0872741586  W2        5070            0.0000000000
     15209      5070  TIP3      H1            -26.7622687078        6.5841636235       -6.0411041586  W2        5070            0.0000000000
     15210      5070  TIP3      H2            -27.8192287078        5.9348136235       -5.1733141586  W2        5070            0.0000000000
     15211      5071  TIP3      OH2           -27.0388887078        7.0661136235        3.0973858414  W2        5071            0.0000000000
     15212      5071  TIP3      H1            -26.9198587078        7.6396536235        3.8544258414  W2        5071            0.0000000000
     15213      5071  TIP3      H2            -26.3834287078        6.3780536235        3.2121658414  W2        5071            0.0000000000
     15214      5072  TIP3      OH2           -26.6908587078        3.1611436235       -5.1491641586  W2        5072            0.0000000000
     15215      5072  TIP3      H1            -27.0375087078        3.7782036235       -4.5047341586  W2        5072            0.0000000000
     15216      5072  TIP3      H2            -26.0321687078        3.6617136235       -5.6306141586  W2        5072            0.0000000000
     15217      5073  TIP3      OH2           -29.7675987078       17.5261636235       -8.0776741586  W2        5073            0.0000000000
     15218      5073  TIP3      H1            -29.6067287078       18.3259136235       -8.5784141586  W2        5073            0.0000000000
     15219      5073  TIP3      H2            -29.9648187078       17.8327636235       -7.1926141586  W2        5073            0.0000000000
     15220      5074  TIP3      OH2           -31.0331587078        4.2240836235       -8.4619141586  W2        5074            0.0000000000
     15221      5074  TIP3      H1            -31.1166787078        5.1123936235       -8.1152741586  W2        5074            0.0000000000
     15222      5074  TIP3      H2            -30.1431287078        3.9587536235       -8.2302341586  W2        5074            0.0000000000
     15223      5075  TIP3      OH2           -20.8343087078        4.9731436235        3.9323558414  W2        5075            0.0000000000
     15224      5075  TIP3      H1            -21.7507287078        5.2353136235        3.8447258414  W2        5075            0.0000000000
     15225      5075  TIP3      H2            -20.4988087078        4.9700436235        3.0358858414  W2        5075            0.0000000000
     15226      5076  TIP3      OH2           -22.2322087078        8.7232436235       -1.9719141586  W2        5076            0.0000000000
     15227      5076  TIP3      H1            -23.0297687078        8.3082636235       -2.3004141586  W2        5076            0.0000000000
     15228      5076  TIP3      H2            -21.7870987078        8.0326136235       -1.4808641586  W2        5076            0.0000000000
     15229      5077  TIP3      OH2           -32.7746287078       14.6513036235       -9.4014641586  W2        5077            0.0000000000
     15230      5077  TIP3      H1            -32.1824787078       15.3507836235       -9.1252241586  W2        5077            0.0000000000
     15231      5077  TIP3      H2            -32.3153287078       14.2182536235      -10.1210041586  W2        5077            0.0000000000
     15232      5078  TIP3      OH2           -34.4587087078        7.3156036235      -10.2855241586  W2        5078            0.0000000000
     15233      5078  TIP3      H1            -34.5034487078        8.2549136235      -10.1068241586  W2        5078            0.0000000000
     15234      5078  TIP3      H2            -35.3463887078        7.0800936235      -10.5553141586  W2        5078            0.0000000000
     15235      5079  TIP3      OH2           -21.1457487078       17.9794936235       -0.3495641586  W2        5079            0.0000000000
     15236      5079  TIP3      H1            -21.3013187078       18.6579336235       -1.0066341586  W2        5079            0.0000000000
     15237      5079  TIP3      H2            -20.2131087078       18.0514236235       -0.1465041586  W2        5079            0.0000000000
     15238      5080  TIP3      OH2           -33.6505087078        2.0972636235       -1.6124241586  W2        5080            0.0000000000
     15239      5080  TIP3      H1            -33.8795287078        2.1565136235       -2.5399241586  W2        5080            0.0000000000
     15240      5080  TIP3      H2            -34.0931687078        1.3058136235       -1.3060141586  W2        5080            0.0000000000
     15241      5081  TIP3      OH2           -34.7201787078       16.0379736235       -5.4518441586  W2        5081            0.0000000000
     15242      5081  TIP3      H1            -35.5523187078       16.5102436235       -5.4247041586  W2        5081            0.0000000000
     15243      5081  TIP3      H2            -34.1743487078       16.5477336235       -6.0505341586  W2        5081            0.0000000000
     15244      5082  TIP3      OH2           -35.4318087078       18.6503436235        5.8779558414  W2        5082            0.0000000000
     15245      5082  TIP3      H1            -34.8915887078       18.4337436235        6.6378758414  W2        5082            0.0000000000
     15246      5082  TIP3      H2            -35.9130087078       17.8449436235        5.6882058414  W2        5082            0.0000000000
     15247      5083  TIP3      OH2           -30.8344687078       17.5697836235        7.4983758414  W2        5083            0.0000000000
     15248      5083  TIP3      H1            -30.0667487078       17.1108636235        7.8392958414  W2        5083            0.0000000000
     15249      5083  TIP3      H2            -30.8558487078       17.3437636235        6.5684958414  W2        5083            0.0000000000
     15250      5084  TIP3      OH2           -26.7425087078       17.0778436235      -11.1264441586  W2        5084            0.0000000000
     15251      5084  TIP3      H1            -27.3864087078       16.4467036235      -10.8050741586  W2        5084            0.0000000000
     15252      5084  TIP3      H2            -25.9806787078       16.5466436235      -11.3580941586  W2        5084            0.0000000000
     15253      5085  TIP3      OH2           -24.2575987078       15.9498936235        6.2275258414  W2        5085            0.0000000000
     15254      5085  TIP3      H1            -24.6086487078       15.0931936235        6.4705658414  W2        5085            0.0000000000
     15255      5085  TIP3      H2            -23.5312787078       16.0925636235        6.8344258414  W2        5085            0.0000000000
     15256      5086  TIP3      OH2           -22.1382187078       16.8948336235      -10.8926441586  W2        5086            0.0000000000
     15257      5086  TIP3      H1            -21.8551787078       16.1003536235      -10.4399541586  W2        5086            0.0000000000
     15258      5086  TIP3      H2            -21.3984287078       17.1279336235      -11.4535341586  W2        5086            0.0000000000
     15259      5087  TIP3      OH2           -35.5248587078       12.4607536235        6.8323858414  W2        5087            0.0000000000
     15260      5087  TIP3      H1            -35.3808087078       11.5588236235        6.5460558414  W2        5087            0.0000000000
     15261      5087  TIP3      H2            -36.2971187078       12.7469636235        6.3446158414  W2        5087            0.0000000000
     15262      5088  TIP3      OH2           -31.1834887078       12.8043236235      -11.0351541586  W2        5088            0.0000000000
     15263      5088  TIP3      H1            -31.1190787078       12.0102836235      -10.5045141586  W2        5088            0.0000000000
     15264      5088  TIP3      H2            -30.5305687078       12.6856036235      -11.7249541586  W2        5088            0.0000000000
     15265      5089  TIP3      OH2           -28.8692487078       12.4305636235        6.2650258414  W2        5089            0.0000000000
     15266      5089  TIP3      H1            -29.1978687078       12.7013736235        5.4077658414  W2        5089            0.0000000000
     15267      5089  TIP3      H2            -28.7174287078       11.4895436235        6.1775258414  W2        5089            0.0000000000
     15268      5090  TIP3      OH2           -25.8311487078       13.8514936235      -11.2993541586  W2        5090            0.0000000000
     15269      5090  TIP3      H1            -26.0997387078       14.0317036235      -10.3984641586  W2        5090            0.0000000000
     15270      5090  TIP3      H2            -26.0375887078       12.9261136235      -11.4307741586  W2        5090            0.0000000000
     15271      5091  TIP3      OH2           -23.1347287078       12.3462936235        3.6482558414  W2        5091            0.0000000000
     15272      5091  TIP3      H1            -22.3892487078       12.9346636235        3.5286558414  W2        5091            0.0000000000
     15273      5091  TIP3      H2            -23.8920487078       12.9282636235        3.7115658414  W2        5091            0.0000000000
     15274      5092  TIP3      OH2           -34.6922087078        9.6610836235        6.2523158414  W2        5092            0.0000000000
     15275      5092  TIP3      H1            -34.2840887078        8.8037436235        6.1313758414  W2        5092            0.0000000000
     15276      5092  TIP3      H2            -34.9524487078        9.6752136235        7.1733458414  W2        5092            0.0000000000
     15277      5093  TIP3      OH2           -30.0341087078       10.7769436235       -8.7293541586  W2        5093            0.0000000000
     15278      5093  TIP3      H1            -30.4939087078       10.2927736235       -8.0435041586  W2        5093            0.0000000000
     15279      5093  TIP3      H2            -29.7792387078       10.1084836235       -9.3653041586  W2        5093            0.0000000000
     15280      5094  TIP3      OH2           -30.7451787078        8.6696536235        3.6266058414  W2        5094            0.0000000000
     15281      5094  TIP3      H1            -31.3635687078        9.3443136235        3.9070758414  W2        5094            0.0000000000
     15282      5094  TIP3      H2            -30.4010587078        8.9910436235        2.7932258414  W2        5094            0.0000000000
     15283      5095  TIP3      OH2           -28.9630687078        9.0201236235      -10.4670341586  W2        5095            0.0000000000
     15284      5095  TIP3      H1            -29.1435687078        8.8652436235      -11.3942041586  W2        5095            0.0000000000
     15285      5095  TIP3      H2            -28.0130187078        9.1279936235      -10.4222441586  W2        5095            0.0000000000
     15286      5096  TIP3      OH2           -25.7253587078       11.1411836235        6.9040858414  W2        5096            0.0000000000
     15287      5096  TIP3      H1            -24.7722387078       11.2250936235        6.8766858414  W2        5096            0.0000000000
     15288      5096  TIP3      H2            -25.8858987078       10.4293636235        7.5235758414  W2        5096            0.0000000000
     15289      5097  TIP3      OH2           -19.5732387078       11.3745436235      -11.0212241586  W2        5097            0.0000000000
     15290      5097  TIP3      H1            -19.8467587078       10.9500936235      -11.8343941586  W2        5097            0.0000000000
     15291      5097  TIP3      H2            -19.5338287078       12.3059936235      -11.2381841586  W2        5097            0.0000000000
     15292      5098  TIP3      OH2           -30.4058087078        6.0247336235        4.7089158414  W2        5098            0.0000000000
     15293      5098  TIP3      H1            -30.2557187078        5.2958636235        4.1068858414  W2        5098            0.0000000000
     15294      5098  TIP3      H2            -30.4035687078        6.8019036235        4.1501358414  W2        5098            0.0000000000
     15295      5099  TIP3      OH2           -29.9932387078        4.3943136235        2.2016558414  W2        5099            0.0000000000
     15296      5099  TIP3      H1            -29.4574887078        4.8459836235        1.5495858414  W2        5099            0.0000000000
     15297      5099  TIP3      H2            -30.8452787078        4.2862936235        1.7790658414  W2        5099            0.0000000000
     15298      5100  TIP3      OH2           -28.4113987078        9.8339336235        2.4411758414  W2        5100            0.0000000000
     15299      5100  TIP3      H1            -27.6609187078        9.6776836235        1.8679558414  W2        5100            0.0000000000
     15300      5100  TIP3      H2            -28.7505687078       10.6855936235        2.1657258414  W2        5100            0.0000000000
     15301      5101  TIP3      OH2           -23.9957787078        7.6491136235        7.4697058414  W2        5101            0.0000000000
     15302      5101  TIP3      H1            -23.8036487078        6.7180536235        7.3581558414  W2        5101            0.0000000000
     15303      5101  TIP3      H2            -23.1381487078        8.0740636235        7.4592458414  W2        5101            0.0000000000
     15304      5102  TIP3      OH2           -22.6790587078       10.4376336235        5.5469758414  W2        5102            0.0000000000
     15305      5102  TIP3      H1            -22.9605587078       11.1470936235        4.9693558414  W2        5102            0.0000000000
     15306      5102  TIP3      H2            -21.7366287078       10.3649336235        5.3960958414  W2        5102            0.0000000000
     15307      5103  TIP3      OH2           -31.9271787078        7.2230836235        6.6204758414  W2        5103            0.0000000000
     15308      5103  TIP3      H1            -32.6942787078        6.6905636235        6.4102358414  W2        5103            0.0000000000
     15309      5103  TIP3      H2            -31.2482787078        6.9131236235        6.0211058414  W2        5103            0.0000000000
     15310      5104  TIP3      OH2           -29.1876887078        1.8508836235        2.6330158414  W2        5104            0.0000000000
     15311      5104  TIP3      H1            -29.2857287078        2.7972036235        2.5276358414  W2        5104            0.0000000000
     15312      5104  TIP3      H2            -29.9300687078        1.4782636235        2.1573658414  W2        5104            0.0000000000
     15313      5105  TIP3      OH2           -27.9236387078        6.1724236235        6.1968558414  W2        5105            0.0000000000
     15314      5105  TIP3      H1            -28.1590987078        5.9530936235        7.0983458414  W2        5105            0.0000000000
     15315      5105  TIP3      H2            -28.7069487078        5.9655436235        5.6871058414  W2        5105            0.0000000000
     15316      5106  TIP3      OH2           -25.2079787078        5.2997736235        5.2722058414  W2        5106            0.0000000000
     15317      5106  TIP3      H1            -26.1554387078        5.3317436235        5.4045358414  W2        5106            0.0000000000
     15318      5106  TIP3      H2            -24.8953087078        4.6744836235        5.9260258414  W2        5106            0.0000000000
     15319      5107  TIP3      OH2           -23.5738287078        3.9338836235        7.2773958414  W2        5107            0.0000000000
     15320      5107  TIP3      H1            -23.6706487078        2.9816136235        7.2715858414  W2        5107            0.0000000000
     15321      5107  TIP3      H2            -23.8955187078        4.2025636235        8.1379458414  W2        5107            0.0000000000
     15322      5108  TIP3      OH2           -33.7468987078        5.1434636235        6.3249458414  W2        5108            0.0000000000
     15323      5108  TIP3      H1            -33.5351587078        4.4370736235        5.7146958414  W2        5108            0.0000000000
     15324      5108  TIP3      H2            -33.8581487078        4.7060636235        7.1690658414  W2        5108            0.0000000000
     15325      5109  TIP3      OH2           -28.9658787078        1.1446236235        5.3042958414  W2        5109            0.0000000000
     15326      5109  TIP3      H1            -28.2540387078        0.5048436235        5.2902058414  W2        5109            0.0000000000
     15327      5109  TIP3      H2            -29.0668387078        1.4114536235        4.3906058414  W2        5109            0.0000000000
     15328      5110  TIP3      OH2           -28.6121287078        2.8274636235        7.3579258414  W2        5110            0.0000000000
     15329      5110  TIP3      H1            -28.7439087078        2.3518436235        6.5377758414  W2        5110            0.0000000000
     15330      5110  TIP3      H2            -29.2113887078        3.5718236235        7.3026358414  W2        5110            0.0000000000
     15331      5111  TIP3      OH2           -29.0658987078       19.7104936235       -9.4656741586  W2        5111            0.0000000000
     15332      5111  TIP3      H1            -28.1328287078       19.8683636235       -9.3218341586  W2        5111            0.0000000000
     15333      5111  TIP3      H2            -29.3300187078       20.3857936235      -10.0905241586  W2        5111            0.0000000000
     15334      5112  TIP3      OH2           -35.4974087078       14.3468736235       -9.9828641586  W2        5112            0.0000000000
     15335      5112  TIP3      H1            -34.5834887078       14.4257636235       -9.7094741586  W2        5112            0.0000000000
     15336      5112  TIP3      H2            -35.4900987078       13.6598336235      -10.6493041586  W2        5112            0.0000000000
     15337      5113  TIP3      OH2           -36.8483487078       19.7397236235       -4.9054741586  W2        5113            0.0000000000
     15338      5113  TIP3      H1            -37.4956387078       19.2778936235       -5.4383541586  W2        5113            0.0000000000
     15339      5113  TIP3      H2            -36.4938887078       19.0680536235       -4.3228541586  W2        5113            0.0000000000
     15340      5114  TIP3      OH2           -35.9784287078       17.8204236235       -3.1008541586  W2        5114            0.0000000000
     15341      5114  TIP3      H1            -36.3127487078       16.9401536235       -2.9288341586  W2        5114            0.0000000000
     15342      5114  TIP3      H2            -35.7561887078       18.1659236235       -2.2362941586  W2        5114            0.0000000000
     15343      5115  TIP3      OH2           -18.4299487078       18.6300636235       -0.1203741586  W2        5115            0.0000000000
     15344      5115  TIP3      H1            -18.4512787078       18.8149036235        0.8185658414  W2        5115            0.0000000000
     15345      5115  TIP3      H2            -17.7393287078       19.1984636235       -0.4612341586  W2        5115            0.0000000000
     15346      5116  TIP3      OH2           -18.8666587078       18.1971736235        2.8015358414  W2        5116            0.0000000000
     15347      5116  TIP3      H1            -19.3537887078       17.4615836235        2.4302758414  W2        5116            0.0000000000
     15348      5116  TIP3      H2            -18.3173887078       17.8035636235        3.4794758414  W2        5116            0.0000000000
     15349      5117  TIP3      OH2           -20.4159287078       13.9869836235        7.4395658414  W2        5117            0.0000000000
     15350      5117  TIP3      H1            -21.2818187078       13.8819536235        7.8337958414  W2        5117            0.0000000000
     15351      5117  TIP3      H2            -20.0393387078       14.7453136235        7.8860358414  W2        5117            0.0000000000
     15352      5118  TIP3      OH2           -19.1149587078       12.2433536235       -7.0461841586  W2        5118            0.0000000000
     15353      5118  TIP3      H1            -18.2648187078       12.6644436235       -6.9190241586  W2        5118            0.0000000000
     15354      5118  TIP3      H2            -19.1094487078       11.5033636235       -6.4390441586  W2        5118            0.0000000000
     15355      5119  TIP3      OH2           -18.7203987078       10.2970936235       -5.2226141586  W2        5119            0.0000000000
     15356      5119  TIP3      H1            -19.4469387078        9.8173536235       -4.8248541586  W2        5119            0.0000000000
     15357      5119  TIP3      H2            -18.1390687078       10.5025636235       -4.4904541586  W2        5119            0.0000000000
     15358      5120  TIP3      OH2           -18.9612787078       13.0818436235       -0.2748541586  W2        5120            0.0000000000
     15359      5120  TIP3      H1            -18.1278587078       12.7038436235       -0.5554941586  W2        5120            0.0000000000
     15360      5120  TIP3      H2            -18.8492487078       14.0249636235       -0.3939441586  W2        5120            0.0000000000
     15361      5121  TIP3      OH2           -20.4750487078       15.9595936235        2.0319858414  W2        5121            0.0000000000
     15362      5121  TIP3      H1            -21.1225187078       16.2847436235        2.6575058414  W2        5121            0.0000000000
     15363      5121  TIP3      H2            -20.9926487078       15.5193636235        1.3578158414  W2        5121            0.0000000000
     15364      5122  TIP3      OH2           -18.4520887078       10.1979436235       -8.8314841586  W2        5122            0.0000000000
     15365      5122  TIP3      H1            -18.9739787078       10.5543536235       -9.5503941586  W2        5122            0.0000000000
     15366      5122  TIP3      H2            -18.4851687078       10.8727236235       -8.1533941586  W2        5122            0.0000000000
     15367      5123  TIP3      OH2           -20.1031887078        7.4375036235      -10.2807741586  W2        5123            0.0000000000
     15368      5123  TIP3      H1            -20.0067487078        8.1042036235      -10.9608041586  W2        5123            0.0000000000
     15369      5123  TIP3      H2            -20.2432287078        6.6221336235      -10.7622241586  W2        5123            0.0000000000
     15370      5124  TIP3      OH2           -20.9337187078        8.8177436235       -4.6597441586  W2        5124            0.0000000000
     15371      5124  TIP3      H1            -21.0838387078        7.8726036235       -4.6799641586  W2        5124            0.0000000000
     15372      5124  TIP3      H2            -21.2872687078        9.0988836235       -3.8158341586  W2        5124            0.0000000000
     15373      5125  TIP3      OH2           -35.8984787078       10.8959636235       -0.6493641586  W2        5125            0.0000000000
     15374      5125  TIP3      H1            -35.7141887078       10.8141336235       -1.5850741586  W2        5125            0.0000000000
     15375      5125  TIP3      H2            -35.0491887078       10.7716636235       -0.2257241586  W2        5125            0.0000000000
     15376      5126  TIP3      OH2           -20.0774287078       10.7880736235        4.9790858414  W2        5126            0.0000000000
     15377      5126  TIP3      H1            -19.4946987078       10.0533036235        5.1708058414  W2        5126            0.0000000000
     15378      5126  TIP3      H2            -19.5134987078       11.5601036235        5.0256658414  W2        5126            0.0000000000
     15379      5127  TIP3      OH2           -18.5807187078        8.6906536235        5.6636258414  W2        5127            0.0000000000
     15380      5127  TIP3      H1            -19.4440487078        8.3118636235        5.4980958414  W2        5127            0.0000000000
     15381      5127  TIP3      H2            -17.9763487078        7.9521336235        5.5892058414  W2        5127            0.0000000000
     15382      5128  TIP3      OH2           -20.8558087078        4.8454836235      -11.1632241586  W2        5128            0.0000000000
     15383      5128  TIP3      H1            -20.2452287078        4.4741636235      -10.5264041586  W2        5128            0.0000000000
     15384      5128  TIP3      H2            -21.6926587078        4.4241736235      -10.9672241586  W2        5128            0.0000000000
     15385      5129  TIP3      OH2           -21.2232387078        6.4003236235       -6.1972341586  W2        5129            0.0000000000
     15386      5129  TIP3      H1            -20.9435287078        5.4933636235       -6.0730641586  W2        5129            0.0000000000
     15387      5129  TIP3      H2            -20.4640687078        6.8344736235       -6.5863141586  W2        5129            0.0000000000
     15388      5130  TIP3      OH2           -20.6114087078        6.9820636235       -0.7613441586  W2        5130            0.0000000000
     15389      5130  TIP3      H1            -19.6786087078        7.1940536235       -0.7957441586  W2        5130            0.0000000000
     15390      5130  TIP3      H2            -20.8466587078        7.0832736235        0.1609558414  W2        5130            0.0000000000
     15391      5131  TIP3      OH2           -20.5822187078        7.7185936235        2.0145958414  W2        5131            0.0000000000
     15392      5131  TIP3      H1            -21.4250887078        7.9866336235        2.3805758414  W2        5131            0.0000000000
     15393      5131  TIP3      H2            -20.1397887078        8.5407836235        1.8037058414  W2        5131            0.0000000000
     15394      5132  TIP3      OH2           -36.3009987078        6.1664636235        5.4915158414  W2        5132            0.0000000000
     15395      5132  TIP3      H1            -35.3815087078        6.0442936235        5.7278258414  W2        5132            0.0000000000
     15396      5132  TIP3      H2            -36.7505487078        5.4164336235        5.8808658414  W2        5132            0.0000000000
     15397      5133  TIP3      OH2           -18.2990587078        1.6986136235        7.3680958414  W2        5133            0.0000000000
     15398      5133  TIP3      H1            -17.9493587078        1.0449636235        6.7625658414  W2        5133            0.0000000000
     15399      5133  TIP3      H2            -18.1521087078        2.5360236235        6.9283558414  W2        5133            0.0000000000
     15400      5134  TIP3      OH2           -20.6097587078        3.6632536235       -6.1490341586  W2        5134            0.0000000000
     15401      5134  TIP3      H1            -20.4272587078        3.2144036235       -5.3235341586  W2        5134            0.0000000000
     15402      5134  TIP3      H2            -21.2094687078        3.0786936235       -6.6125741586  W2        5134            0.0000000000
     15403      5135  TIP3      OH2           -35.0797487078        4.4786236235       -1.6171941586  W2        5135            0.0000000000
     15404      5135  TIP3      H1            -34.6345887078        3.6868736235       -1.3152241586  W2        5135            0.0000000000
     15405      5135  TIP3      H2            -34.6134487078        5.1951436235       -1.1866341586  W2        5135            0.0000000000
     15406      5136  TIP3      OH2           -36.7757187078        7.4779236235       -0.5481741586  W2        5136            0.0000000000
     15407      5136  TIP3      H1            -36.2837387078        7.2569736235       -1.3389741586  W2        5136            0.0000000000
     15408      5136  TIP3      H2            -36.4136287078        8.3182636235       -0.2672241586  W2        5136            0.0000000000
     15409      5137  TIP3      OH2           -18.7793387078        3.8080736235        5.7172258414  W2        5137            0.0000000000
     15410      5137  TIP3      H1            -19.6967687078        4.0787836235        5.6815758414  W2        5137            0.0000000000
     15411      5137  TIP3      H2            -18.6563987078        3.2729136235        4.9331958414  W2        5137            0.0000000000
     15412      5138  TIP3      OH2           -18.7431387078        3.7310636235       -9.6210041586  W2        5138            0.0000000000
     15413      5138  TIP3      H1            -18.3308787078        3.0096336235      -10.0962041586  W2        5138            0.0000000000
     15414      5138  TIP3      H2            -18.0614887078        4.4005236235       -9.5625741586  W2        5138            0.0000000000
     15415      5139  TIP3      OH2           -36.4620687078        3.7358336235       -6.4939341586  W2        5139            0.0000000000
     15416      5139  TIP3      H1            -37.3872287078        3.9444936235       -6.6233841586  W2        5139            0.0000000000
     15417      5139  TIP3      H2            -36.0080787078        4.2199136235       -7.1837041586  W2        5139            0.0000000000
     15418      5140  TIP3      OH2           -21.6913487078       18.7200036235       -4.5481941586  W2        5140            0.0000000000
     15419      5140  TIP3      H1            -21.0390587078       18.3722136235       -5.1562841586  W2        5140            0.0000000000
     15420      5140  TIP3      H2            -21.1809687078       19.2083236235       -3.9022241586  W2        5140            0.0000000000
     15421      5141  TIP3      OH2           -36.4985287078        2.4737336235        1.8503158414  W2        5141            0.0000000000
     15422      5141  TIP3      H1            -37.1634787078        2.2277636235        2.4934058414  W2        5141            0.0000000000
     15423      5141  TIP3      H2            -36.9413987078        3.0957736235        1.2731158414  W2        5141            0.0000000000
     15424      5142  TIP3      OH2           -34.3065987078       15.6491436235        5.9948958414  W2        5142            0.0000000000
     15425      5142  TIP3      H1            -35.1273487078       15.8237936235        5.5343658414  W2        5142            0.0000000000
     15426      5142  TIP3      H2            -34.5588187078       15.5756136235        6.9153358414  W2        5142            0.0000000000
     15427      5143  TIP3      OH2           -31.3523087078       16.6232636235        2.2532958414  W2        5143            0.0000000000
     15428      5143  TIP3      H1            -31.7771987078       17.4331136235        1.9707558414  W2        5143            0.0000000000
     15429      5143  TIP3      H2            -30.4480287078       16.7086736235        1.9512758414  W2        5143            0.0000000000
     15430      5144  TIP3      OH2           -27.0411687078       18.0222636235        5.2126658414  W2        5144            0.0000000000
     15431      5144  TIP3      H1            -26.8564187078       17.6888736235        6.0906958414  W2        5144            0.0000000000
     15432      5144  TIP3      H2            -26.1947187078       18.3321236235        4.8905858414  W2        5144            0.0000000000
     15433      5145  TIP3      OH2           -24.6961287078       19.3081536235        4.4568058414  W2        5145            0.0000000000
     15434      5145  TIP3      H1            -24.0192387078       18.6753836235        4.2167258414  W2        5145            0.0000000000
     15435      5145  TIP3      H2            -24.3742487078       19.7092036235        5.2641358414  W2        5145            0.0000000000
     15436      5146  TIP3      OH2           -19.7787487078        1.8977036235        3.5363058414  W2        5146            0.0000000000
     15437      5146  TIP3      H1            -20.5913987078        2.2227336235        3.1487758414  W2        5146            0.0000000000
     15438      5146  TIP3      H2            -19.5458987078        1.1375536235        3.0032158414  W2        5146            0.0000000000
     15439      5147  TIP3      OH2           -33.9506387078       19.8796536235        2.3008258414  W2        5147            0.0000000000
     15440      5147  TIP3      H1            -34.6709987078       20.3197536235        1.8495958414  W2        5147            0.0000000000
     15441      5147  TIP3      H2            -34.3162387078       19.6291236235        3.1492258414  W2        5147            0.0000000000
     15442      5148  TIP3      OH2           -31.4833787078       19.4800436235        1.3305458414  W2        5148            0.0000000000
     15443      5148  TIP3      H1            -32.3481587078       19.5518936235        1.7345558414  W2        5148            0.0000000000
     15444      5148  TIP3      H2            -31.5384787078       20.0267736235        0.5467958414  W2        5148            0.0000000000
     15445      5149  TIP3      OH2           -26.7728187078       19.3679336235        0.5061458414  W2        5149            0.0000000000
     15446      5149  TIP3      H1            -27.2294187078       19.8969036235       -0.1480141586  W2        5149            0.0000000000
     15447      5149  TIP3      H2            -26.6100187078       19.9710736235        1.2313758414  W2        5149            0.0000000000
     15448      5150  TIP3      OH2           -24.4451887078       18.2458936235        1.4511758414  W2        5150            0.0000000000
     15449      5150  TIP3      H1            -25.3498187078       18.4109136235        1.1853858414  W2        5150            0.0000000000
     15450      5150  TIP3      H2            -24.0163287078       19.0991136235        1.3855158414  W2        5150            0.0000000000
     15451      5151  TIP3      OH2           -21.8409987078       19.8158036235        1.7459558414  W2        5151            0.0000000000
     15452      5151  TIP3      H1            -22.0227987078       20.7316936235        1.5354458414  W2        5151            0.0000000000
     15453      5151  TIP3      H2            -21.6642187078       19.4055136235        0.8994158414  W2        5151            0.0000000000
     15454      5152  TIP3      OH2           -34.5358287078       18.5029036235       -0.7889941586  W2        5152            0.0000000000
     15455      5152  TIP3      H1            -34.5542287078       18.0774136235        0.0682358414  W2        5152            0.0000000000
     15456      5152  TIP3      H2            -33.7310387078       18.1844036235       -1.1977741586  W2        5152            0.0000000000
     15457      5153  TIP3      OH2           -32.3945187078       17.2127736235       -2.1340041586  W2        5153            0.0000000000
     15458      5153  TIP3      H1            -32.6134487078       16.2965136235       -1.9644041586  W2        5153            0.0000000000
     15459      5153  TIP3      H2            -31.5702987078       17.3528136235       -1.6678641586  W2        5153            0.0000000000
     15460      5154  TIP3      OH2           -29.8572687078       17.6827036235       -1.2852041586  W2        5154            0.0000000000
     15461      5154  TIP3      H1            -29.6446987078       16.7946036235       -1.5721141586  W2        5154            0.0000000000
     15462      5154  TIP3      H2            -29.7927587078       17.6484736235       -0.3308041586  W2        5154            0.0000000000
     15463      5155  TIP3      OH2           -26.3488987078        3.3467636235       -2.1408741586  W2        5155            0.0000000000
     15464      5155  TIP3      H1            -27.0232187078        2.7173236235       -1.8852941586  W2        5155            0.0000000000
     15465      5155  TIP3      H2            -25.7849787078        2.8626536235       -2.7440841586  W2        5155            0.0000000000
     15466      5156  TIP3      OH2           -21.2061787078        1.4541636235       -2.0281641586  W2        5156            0.0000000000
     15467      5156  TIP3      H1            -20.6024187078        2.0017036235       -2.5300641586  W2        5156            0.0000000000
     15468      5156  TIP3      H2            -22.0759787078        1.7732036235       -2.2687541586  W2        5156            0.0000000000
     15469      5157  TIP3      OH2           -19.4791387078        2.5930336235       -3.6950741586  W2        5157            0.0000000000
     15470      5157  TIP3      H1            -18.8673887078        2.0786036235       -4.2217141586  W2        5157            0.0000000000
     15471      5157  TIP3      H2            -19.0967987078        3.4702436235       -3.6716341586  W2        5157            0.0000000000
     15472      5158  TIP3      OH2           -34.0221487078        1.9807936235       -4.3188841586  W2        5158            0.0000000000
     15473      5158  TIP3      H1            -34.7991687078        1.7462836235       -4.8262941586  W2        5158            0.0000000000
     15474      5158  TIP3      H2            -33.4917887078        1.1840036235       -4.3100841586  W2        5158            0.0000000000
     15475      5159  TIP3      OH2           -35.1858087078        1.7786036235       -8.5152741586  W2        5159            0.0000000000
     15476      5159  TIP3      H1            -34.7467387078        2.3896536235       -9.1069241586  W2        5159            0.0000000000
     15477      5159  TIP3      H2            -35.8195687078        2.3170136235       -8.0412741586  W2        5159            0.0000000000
     15478      5160  TIP3      OH2           -29.4428887078        1.9075036235       -4.5055741586  W2        5160            0.0000000000
     15479      5160  TIP3      H1            -28.5685487078        2.2959336235       -4.5351441586  W2        5160            0.0000000000
     15480      5160  TIP3      H2            -29.5788087078        1.6922836235       -3.5828541586  W2        5160            0.0000000000
     15481      5161  TIP3      OH2           -23.8860487078        1.9374836235       -2.8564041586  W2        5161            0.0000000000
     15482      5161  TIP3      H1            -23.8098887078        2.0326436235       -3.8058041586  W2        5161            0.0000000000
     15483      5161  TIP3      H2            -24.1611287078        1.0297736235       -2.7274941586  W2        5161            0.0000000000
     15484      5162  TIP3      OH2           -22.5327887078        1.9632636235       -7.1639041586  W2        5162            0.0000000000
     15485      5162  TIP3      H1            -23.2356787078        2.5781836235       -7.3737641586  W2        5162            0.0000000000
     15486      5162  TIP3      H2            -22.9776487078        1.1259336235       -7.0328141586  W2        5162            0.0000000000
     15487      5163  TIP3      OH2           -35.2848587078       17.7268236235       -7.6177641586  W2        5163            0.0000000000
     15488      5163  TIP3      H1            -35.9698687078       17.6887136235       -8.2852541586  W2        5163            0.0000000000
     15489      5163  TIP3      H2            -35.2811387078       18.6395836235       -7.3295541586  W2        5163            0.0000000000
     15490      5164  TIP3      OH2           -33.3248987078        3.6947536235      -10.0728641586  W2        5164            0.0000000000
     15491      5164  TIP3      H1            -32.8335587078        3.0649936235      -10.6003141586  W2        5164            0.0000000000
     15492      5164  TIP3      H2            -32.7012687078        3.9906936235       -9.4097441586  W2        5164            0.0000000000
     15493      5165  TIP3      OH2           -28.2988887078        3.9879036235       -7.6158141586  W2        5165            0.0000000000
     15494      5165  TIP3      H1            -28.1207587078        3.3412236235       -6.9329541586  W2        5165            0.0000000000
     15495      5165  TIP3      H2            -28.3522687078        4.8216736235       -7.1487041586  W2        5165            0.0000000000
     15496      5166  TIP3      OH2           -26.4205087078       18.9363136235       -9.2201441586  W2        5166            0.0000000000
     15497      5166  TIP3      H1            -25.5544887078       19.3030536235       -9.3983241586  W2        5166            0.0000000000
     15498      5166  TIP3      H2            -26.6672287078       18.4971136235      -10.0340641586  W2        5166            0.0000000000
     15499      5167  TIP3      OH2           -19.7115487078       18.4993436235       -6.5410341586  W2        5167            0.0000000000
     15500      5167  TIP3      H1            -19.9058387078       17.7515536235       -7.1060741586  W2        5167            0.0000000000
     15501      5167  TIP3      H2            -19.7505387078       19.2573536235       -7.1242441586  W2        5167            0.0000000000
     15502      5168  TIP3      OH2           -34.0643487078        2.4949836235        5.1987358414  W2        5168            0.0000000000
     15503      5168  TIP3      H1            -34.4305287078        1.7292436235        5.6412058414  W2        5168            0.0000000000
     15504      5168  TIP3      H2            -33.1514987078        2.5240036235        5.4852458414  W2        5168            0.0000000000
     15505      5169  TIP3      OH2           -32.0912687078        1.8454236235        6.7344458414  W2        5169            0.0000000000
     15506      5169  TIP3      H1            -31.1929087078        1.5714436235        6.5497858414  W2        5169            0.0000000000
     15507      5169  TIP3      H2            -32.4779587078        1.1030236235        7.1987058414  W2        5169            0.0000000000
     15508      5170  TIP3      OH2           -33.4667387078       18.6469036235      -10.5925541586  W2        5170            0.0000000000
     15509      5170  TIP3      H1            -33.7342787078       18.9331936235       -9.7192441586  W2        5170            0.0000000000
     15510      5170  TIP3      H2            -32.6954787078       18.1008236235      -10.4403041586  W2        5170            0.0000000000
     15511      5171  TIP3      OH2           -23.6700387078        1.1779536235        6.9167258414  W2        5171            0.0000000000
     15512      5171  TIP3      H1            -23.5933187078        0.7520236235        7.7704958414  W2        5171            0.0000000000
     15513      5171  TIP3      H2            -22.7763787078        1.1914236235        6.5740758414  W2        5171            0.0000000000
     15514      5172  TIP3      OH2           -20.4939287078       17.2505836235        5.6091458414  W2        5172            0.0000000000
     15515      5172  TIP3      H1            -21.2757387078       17.0643836235        5.0892058414  W2        5172            0.0000000000
     15516      5172  TIP3      H2            -20.5659387078       18.1800136235        5.8263958414  W2        5172            0.0000000000
     15517      5173  TIP3      OH2            -6.0878887078       11.1370236235       -4.3601341586  W2        5173            0.0000000000
     15518      5173  TIP3      H1             -5.9987787078       12.0808436235       -4.4924241586  W2        5173            0.0000000000
     15519      5173  TIP3      H2             -6.7261287078       10.8616636235       -5.0181941586  W2        5173            0.0000000000
     15520      5174  TIP3      OH2            -7.1547587078       10.3920936235       -0.9413141586  W2        5174            0.0000000000
     15521      5174  TIP3      H1             -7.1930087078        9.7457236235       -0.2363541586  W2        5174            0.0000000000
     15522      5174  TIP3      H2             -7.4771087078        9.9255336235       -1.7124441586  W2        5174            0.0000000000
     15523      5175  TIP3      OH2           -14.7862587078       10.0063036235        0.6516758414  W2        5175            0.0000000000
     15524      5175  TIP3      H1            -14.7450487078        9.3806336235        1.3749158414  W2        5175            0.0000000000
     15525      5175  TIP3      H2            -14.0834887078       10.6301636235        0.8337158414  W2        5175            0.0000000000
     15526      5176  TIP3      OH2            -3.4487387078       13.3311336235       -2.6398041586  W2        5176            0.0000000000
     15527      5176  TIP3      H1             -3.8894687078       12.6107336235       -2.1892441586  W2        5176            0.0000000000
     15528      5176  TIP3      H2             -3.4617687078       14.0518536235       -2.0100341586  W2        5176            0.0000000000
     15529      5177  TIP3      OH2           -13.8629487078       14.4561936235       -0.8134141586  W2        5177            0.0000000000
     15530      5177  TIP3      H1            -14.2324287078       13.6542436235       -1.1829841586  W2        5177            0.0000000000
     15531      5177  TIP3      H2            -12.9218387078       14.2876836235       -0.7670741586  W2        5177            0.0000000000
     15532      5178  TIP3      OH2           -17.2528987078        8.1164536235       -5.4205341586  W2        5178            0.0000000000
     15533      5178  TIP3      H1            -17.7005587078        8.9623236235       -5.4388841586  W2        5178            0.0000000000
     15534      5178  TIP3      H2            -17.8137787078        7.5368736235       -5.9360241586  W2        5178            0.0000000000
     15535      5179  TIP3      OH2           -16.5422887078       10.2784136235       -3.2947341586  W2        5179            0.0000000000
     15536      5179  TIP3      H1            -16.3289387078        9.5085736235       -2.7674341586  W2        5179            0.0000000000
     15537      5179  TIP3      H2            -15.8045287078       10.3680836235       -3.8979741586  W2        5179            0.0000000000
     15538      5180  TIP3      OH2            -6.3371887078       18.4353036235       -2.4277641586  W2        5180            0.0000000000
     15539      5180  TIP3      H1             -5.7175487078       17.7587736235       -2.7008441586  W2        5180            0.0000000000
     15540      5180  TIP3      H2             -6.5454487078       18.2173836235       -1.5192741586  W2        5180            0.0000000000
     15541      5181  TIP3      OH2            -8.7653187078       12.8242336235       -0.5352141586  W2        5181            0.0000000000
     15542      5181  TIP3      H1             -8.4615287078       12.1383736235       -1.1298041586  W2        5181            0.0000000000
     15543      5181  TIP3      H2             -8.0439187078       12.9431036235        0.0825858414  W2        5181            0.0000000000
     15544      5182  TIP3      OH2            -0.1023387078        4.4257636235        0.3254058414  W2        5182            0.0000000000
     15545      5182  TIP3      H1             -0.0531187078        5.0358836235        1.0613158414  W2        5182            0.0000000000
     15546      5182  TIP3      H2              0.3231712922        4.8868536235       -0.3974841586  W2        5182            0.0000000000
     15547      5183  TIP3      OH2            -5.6246187078        7.2184736235       -0.2077341586  W2        5183            0.0000000000
     15548      5183  TIP3      H1             -5.4820287078        6.2721736235       -0.1875741586  W2        5183            0.0000000000
     15549      5183  TIP3      H2             -5.7307187078        7.4254536235       -1.1362441586  W2        5183            0.0000000000
     15550      5184  TIP3      OH2           -12.4697887078        5.3201136235       -2.9352541586  W2        5184            0.0000000000
     15551      5184  TIP3      H1            -12.4266787078        6.1799636235       -3.3536241586  W2        5184            0.0000000000
     15552      5184  TIP3      H2            -12.9273787078        4.7675836235       -3.5689341586  W2        5184            0.0000000000
     15553      5185  TIP3      OH2            -4.7475187078        5.4506736235       -4.5344241586  W2        5185            0.0000000000
     15554      5185  TIP3      H1             -4.1010887078        5.1219936235       -3.9096641586  W2        5185            0.0000000000
     15555      5185  TIP3      H2             -4.2375787078        5.9685736235       -5.1572841586  W2        5185            0.0000000000
     15556      5186  TIP3      OH2           -15.8496387078        7.7166936235       -2.1731141586  W2        5186            0.0000000000
     15557      5186  TIP3      H1            -15.1959787078        7.1668636235       -1.7411041586  W2        5186            0.0000000000
     15558      5186  TIP3      H2            -15.8257087078        7.4425936235       -3.0899141586  W2        5186            0.0000000000
     15559      5187  TIP3      OH2           -10.6931887078        9.2668236235       -2.9579641586  W2        5187            0.0000000000
     15560      5187  TIP3      H1            -10.0770887078        8.7403636235       -2.4485641586  W2        5187            0.0000000000
     15561      5187  TIP3      H2            -11.2793087078        8.6266936235       -3.3616041586  W2        5187            0.0000000000
     15562      5188  TIP3      OH2             0.2891212922        5.9036836235        2.5613858414  W2        5188            0.0000000000
     15563      5188  TIP3      H1             -0.3994187078        6.5617536235        2.4660458414  W2        5188            0.0000000000
     15564      5188  TIP3      H2              0.3045812922        5.7064736235        3.4979258414  W2        5188            0.0000000000
     15565      5189  TIP3      OH2           -13.6595987078        4.2379536235        1.1388258414  W2        5189            0.0000000000
     15566      5189  TIP3      H1            -13.8784287078        4.7680136235        0.3724258414  W2        5189            0.0000000000
     15567      5189  TIP3      H2            -14.3275087078        4.4645036235        1.7859658414  W2        5189            0.0000000000
     15568      5190  TIP3      OH2            -6.2906187078       13.7380636235       -5.3172641586  W2        5190            0.0000000000
     15569      5190  TIP3      H1             -6.5861087078       13.4152936235       -6.1685741586  W2        5190            0.0000000000
     15570      5190  TIP3      H2             -6.6148387078       14.6377336235       -5.2760041586  W2        5190            0.0000000000
     15571      5191  TIP3      OH2           -11.0904587078       11.9135236235        1.4261958414  W2        5191            0.0000000000
     15572      5191  TIP3      H1            -11.8305487078       12.5116736235        1.5297158414  W2        5191            0.0000000000
     15573      5191  TIP3      H2            -10.3765087078       12.4674836235        1.1105558414  W2        5191            0.0000000000
     15574      5192  TIP3      OH2            -2.9836787078        4.7416036235       -2.5538341586  W2        5192            0.0000000000
     15575      5192  TIP3      H1             -3.1988787078        3.9759436235       -2.0212341586  W2        5192            0.0000000000
     15576      5192  TIP3      H2             -2.3279387078        5.2140636235       -2.0409841586  W2        5192            0.0000000000
     15577      5193  TIP3      OH2           -14.0658687078        6.1301336235       -0.9089541586  W2        5193            0.0000000000
     15578      5193  TIP3      H1            -13.4522387078        6.7628936235       -0.5357141586  W2        5193            0.0000000000
     15579      5193  TIP3      H2            -13.5537987078        5.6576336235       -1.5652641586  W2        5193            0.0000000000
     15580      5194  TIP3      OH2           -12.6830287078       13.8778236235        2.2133458414  W2        5194            0.0000000000
     15581      5194  TIP3      H1            -12.6882687078       14.7571736235        1.8352758414  W2        5194            0.0000000000
     15582      5194  TIP3      H2            -13.5366187078       13.7942336235        2.6383358414  W2        5194            0.0000000000
     15583      5195  TIP3      OH2           -16.5619387078       13.5486136235       -7.0047241586  W2        5195            0.0000000000
     15584      5195  TIP3      H1            -16.8338487078       13.7777136235       -7.8934341586  W2        5195            0.0000000000
     15585      5195  TIP3      H2            -16.5163687078       14.3864936235       -6.5441941586  W2        5195            0.0000000000
     15586      5196  TIP3      OH2            -2.9369687078       15.1702036235       -0.2918741586  W2        5196            0.0000000000
     15587      5196  TIP3      H1             -3.8785987078       15.2285936235       -0.1301841586  W2        5196            0.0000000000
     15588      5196  TIP3      H2             -2.6603587078       16.0762536235       -0.4289041586  W2        5196            0.0000000000
     15589      5197  TIP3      OH2            -2.6362687078        3.4567336235        1.1255158414  W2        5197            0.0000000000
     15590      5197  TIP3      H1             -3.3723487078        4.0674436235        1.0876458414  W2        5197            0.0000000000
     15591      5197  TIP3      H2             -1.9528687078        3.8716336235        0.5991558414  W2        5197            0.0000000000
     15592      5198  TIP3      OH2            -9.6331287078        1.5434636235       -1.4086841586  W2        5198            0.0000000000
     15593      5198  TIP3      H1             -9.7507087078        0.5950636235       -1.4628541586  W2        5198            0.0000000000
     15594      5198  TIP3      H2            -10.4881187078        1.8760736235       -1.1355741586  W2        5198            0.0000000000
     15595      5199  TIP3      OH2            -4.6848487078       16.9515536235       -3.6667141586  W2        5199            0.0000000000
     15596      5199  TIP3      H1             -4.2596187078       16.2443436235       -4.1517541586  W2        5199            0.0000000000
     15597      5199  TIP3      H2             -4.3678487078       17.7528236235       -4.0834941586  W2        5199            0.0000000000
     15598      5200  TIP3      OH2            -3.5251987078       14.8524036235       -5.1580541586  W2        5200            0.0000000000
     15599      5200  TIP3      H1             -3.7827187078       14.1624136235       -5.7694641586  W2        5200            0.0000000000
     15600      5200  TIP3      H2             -3.4541187078       14.4095236235       -4.3124641586  W2        5200            0.0000000000
     15601      5201  TIP3      OH2            -1.8391787078       13.4190736235        3.3192958414  W2        5201            0.0000000000
     15602      5201  TIP3      H1             -1.6995487078       12.8273236235        2.5799958414  W2        5201            0.0000000000
     15603      5201  TIP3      H2             -1.6718987078       14.2916636235        2.9631758414  W2        5201            0.0000000000
     15604      5202  TIP3      OH2            -7.3666387078       10.3810236235       -6.9081041586  W2        5202            0.0000000000
     15605      5202  TIP3      H1             -8.0780887078       10.9159936235       -7.2600541586  W2        5202            0.0000000000
     15606      5202  TIP3      H2             -6.6756787078       10.4362336235       -7.5682141586  W2        5202            0.0000000000
     15607      5203  TIP3      OH2            -7.3127187078        8.8384536235       -9.8696041586  W2        5203            0.0000000000
     15608      5203  TIP3      H1             -6.6117287078        8.8611436235       -9.2182041586  W2        5203            0.0000000000
     15609      5203  TIP3      H2             -7.0104287078        8.2104236235      -10.5256741586  W2        5203            0.0000000000
     15610      5204  TIP3      OH2             0.0027512922        9.7588736235        1.3853358414  W2        5204            0.0000000000
     15611      5204  TIP3      H1             -0.6498387078       10.4534336235        1.4744258414  W2        5204            0.0000000000
     15612      5204  TIP3      H2              0.4677812922        9.9689636235        0.5754958414  W2        5204            0.0000000000
     15613      5205  TIP3      OH2            -3.9608687078       10.5903536235       -5.9565141586  W2        5205            0.0000000000
     15614      5205  TIP3      H1             -4.6927687078       10.8187236235       -5.3834541586  W2        5205            0.0000000000
     15615      5205  TIP3      H2             -3.5136487078        9.8766236235       -5.5017641586  W2        5205            0.0000000000
     15616      5206  TIP3      OH2            -4.0635187078        8.7646136235        3.1111858414  W2        5206            0.0000000000
     15617      5206  TIP3      H1             -3.9836087078        9.5280536235        3.6830358414  W2        5206            0.0000000000
     15618      5206  TIP3      H2             -4.6647487078        9.0438536235        2.4206958414  W2        5206            0.0000000000
     15619      5207  TIP3      OH2           -12.3154987078       11.2209736235       -4.0740141586  W2        5207            0.0000000000
     15620      5207  TIP3      H1            -12.6459787078       10.8503136235       -4.8923141586  W2        5207            0.0000000000
     15621      5207  TIP3      H2            -11.7270887078       10.5503736235       -3.7271841586  W2        5207            0.0000000000
     15622      5208  TIP3      OH2           -10.9487487078       14.6490336235       -1.3927941586  W2        5208            0.0000000000
     15623      5208  TIP3      H1            -11.0436187078       14.0703436235       -2.1493341586  W2        5208            0.0000000000
     15624      5208  TIP3      H2            -10.2193887078       14.2776036235       -0.8965141586  W2        5208            0.0000000000
     15625      5209  TIP3      OH2           -11.9489487078        9.9895336235       -0.4405141586  W2        5209            0.0000000000
     15626      5209  TIP3      H1            -11.3836987078       10.1109536235       -1.2033941586  W2        5209            0.0000000000
     15627      5209  TIP3      H2            -11.6300587078       10.6270336235        0.1983358414  W2        5209            0.0000000000
     15628      5210  TIP3      OH2            -5.6397287078       15.4927236235        0.2935358414  W2        5210            0.0000000000
     15629      5210  TIP3      H1             -5.8800687078       16.1550336235        0.9414558414  W2        5210            0.0000000000
     15630      5210  TIP3      H2             -5.8379087078       14.6582436235        0.7184958414  W2        5210            0.0000000000
     15631      5211  TIP3      OH2           -11.0688787078       14.3888036235        4.2766758414  W2        5211            0.0000000000
     15632      5211  TIP3      H1            -11.3801287078       15.1711236235        4.7319958414  W2        5211            0.0000000000
     15633      5211  TIP3      H2            -11.7188587078       14.2357136235        3.5908758414  W2        5211            0.0000000000
     15634      5212  TIP3      OH2            -5.0899187078        9.7526436235       -8.2713941586  W2        5212            0.0000000000
     15635      5212  TIP3      H1             -4.5103687078        9.9026736235       -7.5245041586  W2        5212            0.0000000000
     15636      5212  TIP3      H2             -4.6759187078       10.2233836235       -8.9947541586  W2        5212            0.0000000000
     15637      5213  TIP3      OH2           -14.1488887078       10.5869136235        3.5052458414  W2        5213            0.0000000000
     15638      5213  TIP3      H1            -14.0785687078       11.2375936235        4.2037458414  W2        5213            0.0000000000
     15639      5213  TIP3      H2            -15.0396687078       10.6896636235        3.1703358414  W2        5213            0.0000000000
     15640      5214  TIP3      OH2            -7.3634287078       16.4894936235       -4.8360841586  W2        5214            0.0000000000
     15641      5214  TIP3      H1             -6.8896687078       16.7851236235       -4.0586641586  W2        5214            0.0000000000
     15642      5214  TIP3      H2             -7.9264987078       17.2276536235       -5.0691241586  W2        5214            0.0000000000
     15643      5215  TIP3      OH2           -12.8292887078       16.4603036235        5.0400558414  W2        5215            0.0000000000
     15644      5215  TIP3      H1            -12.8217587078       16.3242736235        4.0926058414  W2        5215            0.0000000000
     15645      5215  TIP3      H2            -13.7452487078       16.3431136235        5.2920558414  W2        5215            0.0000000000
     15646      5216  TIP3      OH2            -1.3910787078        1.5026836235       -8.4584241586  W2        5216            0.0000000000
     15647      5216  TIP3      H1             -2.2910087078        1.6415836235       -8.1633641586  W2        5216            0.0000000000
     15648      5216  TIP3      H2             -1.1392387078        2.3341436235       -8.8602541586  W2        5216            0.0000000000
     15649      5217  TIP3      OH2           -13.3252287078       10.2904036235       -6.4847341586  W2        5217            0.0000000000
     15650      5217  TIP3      H1            -13.6170987078       11.0585736235       -6.9756041586  W2        5217            0.0000000000
     15651      5217  TIP3      H2            -13.9997087078        9.6310236235       -6.6475941586  W2        5217            0.0000000000
     15652      5218  TIP3      OH2            -0.2019387078       15.8689236235      -10.0820341586  W2        5218            0.0000000000
     15653      5218  TIP3      H1             -0.1285887078       16.8079436235       -9.9115041586  W2        5218            0.0000000000
     15654      5218  TIP3      H2              0.7035712922       15.5637836235      -10.1383041586  W2        5218            0.0000000000
     15655      5219  TIP3      OH2           -17.2322187078       12.6533236235        2.3302458414  W2        5219            0.0000000000
     15656      5219  TIP3      H1            -17.7333787078       12.6252636235        1.5152158414  W2        5219            0.0000000000
     15657      5219  TIP3      H2            -17.2268487078       11.7476436235        2.6399758414  W2        5219            0.0000000000
     15658      5220  TIP3      OH2           -17.4819487078       15.4337036235       -0.7857341586  W2        5220            0.0000000000
     15659      5220  TIP3      H1            -16.5358887078       15.2894036235       -0.8047841586  W2        5220            0.0000000000
     15660      5220  TIP3      H2            -17.5943187078       16.2179836235       -0.2486141586  W2        5220            0.0000000000
     15661      5221  TIP3      OH2             0.7159012922       16.0996736235        4.8966358414  W2        5221            0.0000000000
     15662      5221  TIP3      H1              0.6665812922       15.1444836235        4.8593958414  W2        5221            0.0000000000
     15663      5221  TIP3      H2             -0.1108687078       16.3672036235        5.2980158414  W2        5221            0.0000000000
     15664      5222  TIP3      OH2            -8.3056987078       15.6735936235        3.7727758414  W2        5222            0.0000000000
     15665      5222  TIP3      H1             -8.2182387078       16.5000536235        4.2476858414  W2        5222            0.0000000000
     15666      5222  TIP3      H2             -9.1691887078       15.3439736235        4.0217058414  W2        5222            0.0000000000
     15667      5223  TIP3      OH2            -7.8911187078       19.4459636235       -6.4211641586  W2        5223            0.0000000000
     15668      5223  TIP3      H1             -7.9665187078       19.3246836235       -7.3676441586  W2        5223            0.0000000000
     15669      5223  TIP3      H2             -7.8582487078       20.3952336235       -6.3027041586  W2        5223            0.0000000000
     15670      5224  TIP3      OH2           -14.2377387078       18.2346636235       -4.6402641586  W2        5224            0.0000000000
     15671      5224  TIP3      H1            -14.0856987078       17.8867036235       -3.7616141586  W2        5224            0.0000000000
     15672      5224  TIP3      H2            -15.0886987078       17.8783936235       -4.8955441586  W2        5224            0.0000000000
     15673      5225  TIP3      OH2            -4.7895187078       18.5999836235       -9.4189241586  W2        5225            0.0000000000
     15674      5225  TIP3      H1             -4.4146787078       17.8555936235       -9.8896641586  W2        5225            0.0000000000
     15675      5225  TIP3      H2             -4.7851487078       18.3300436235       -8.5005941586  W2        5225            0.0000000000
     15676      5226  TIP3      OH2            -5.1207087078       18.5256936235       -6.6697041586  W2        5226            0.0000000000
     15677      5226  TIP3      H1             -6.0557287078       18.6258836235       -6.4910041586  W2        5226            0.0000000000
     15678      5226  TIP3      H2             -4.8405187078       17.8162936235       -6.0913841586  W2        5226            0.0000000000
     15679      5227  TIP3      OH2            -2.1321187078        7.5929236235        5.3768558414  W2        5227            0.0000000000
     15680      5227  TIP3      H1             -2.5394387078        8.0734836235        4.6561858414  W2        5227            0.0000000000
     15681      5227  TIP3      H2             -2.0915487078        6.6875236235        5.0689358414  W2        5227            0.0000000000
     15682      5228  TIP3      OH2           -14.9831687078       13.9768636235        3.3735258414  W2        5228            0.0000000000
     15683      5228  TIP3      H1            -14.7670387078       13.6154236235        4.2331058414  W2        5228            0.0000000000
     15684      5228  TIP3      H2            -15.8386987078       13.6022436235        3.1638758414  W2        5228            0.0000000000
     15685      5229  TIP3      OH2           -12.3643687078        2.4469136235       -0.6310541586  W2        5229            0.0000000000
     15686      5229  TIP3      H1            -13.2259987078        2.3597336235       -1.0387641586  W2        5229            0.0000000000
     15687      5229  TIP3      H2            -12.3867987078        3.3029236235       -0.2032941586  W2        5229            0.0000000000
     15688      5230  TIP3      OH2            -7.7015887078        2.1689536235        2.7436458414  W2        5230            0.0000000000
     15689      5230  TIP3      H1             -7.2812787078        1.7536636235        3.4967058414  W2        5230            0.0000000000
     15690      5230  TIP3      H2             -8.6346287078        1.9902836235        2.8608458414  W2        5230            0.0000000000
     15691      5231  TIP3      OH2            -4.3750987078        5.9244736235        3.5970958414  W2        5231            0.0000000000
     15692      5231  TIP3      H1             -4.8891487078        5.7986936235        4.3946958414  W2        5231            0.0000000000
     15693      5231  TIP3      H2             -4.5306287078        6.8367836235        3.3527158414  W2        5231            0.0000000000
     15694      5232  TIP3      OH2            -3.6126087078       10.7854736235      -10.6416041586  W2        5232            0.0000000000
     15695      5232  TIP3      H1             -3.5705287078       10.5628636235      -11.5716041586  W2        5232            0.0000000000
     15696      5232  TIP3      H2             -2.7633987078       11.1841836235      -10.4516141586  W2        5232            0.0000000000
     15697      5233  TIP3      OH2            -8.0398587078        4.6612936235       -9.9712741586  W2        5233            0.0000000000
     15698      5233  TIP3      H1             -8.2933787078        4.6804536235       -9.0484641586  W2        5233            0.0000000000
     15699      5233  TIP3      H2             -8.2966487078        3.7898336235      -10.2726541586  W2        5233            0.0000000000
     15700      5234  TIP3      OH2           -12.2733587078        7.4123636235        0.4639658414  W2        5234            0.0000000000
     15701      5234  TIP3      H1            -12.9151487078        7.3720936235        1.1729758414  W2        5234            0.0000000000
     15702      5234  TIP3      H2            -12.2361587078        8.3388336235        0.2262658414  W2        5234            0.0000000000
     15703      5235  TIP3      OH2           -12.2764487078        7.6333736235       -4.6240341586  W2        5235            0.0000000000
     15704      5235  TIP3      H1            -13.1691587078        7.2929836235       -4.6826541586  W2        5235            0.0000000000
     15705      5235  TIP3      H2            -11.8257887078        7.2564636235       -5.3797141586  W2        5235            0.0000000000
     15706      5236  TIP3      OH2            -6.7408987078        8.0494036235       -5.8069541586  W2        5236            0.0000000000
     15707      5236  TIP3      H1             -7.1498687078        8.8642636235       -6.0984741586  W2        5236            0.0000000000
     15708      5236  TIP3      H2             -6.0202787078        7.9094136235       -6.4212441586  W2        5236            0.0000000000
     15709      5237  TIP3      OH2            -7.6387387078        8.2250436235        5.6811158414  W2        5237            0.0000000000
     15710      5237  TIP3      H1             -8.2013587078        7.5202036235        6.0018958414  W2        5237            0.0000000000
     15711      5237  TIP3      H2             -6.8123987078        8.1042336235        6.1488758414  W2        5237            0.0000000000
     15712      5238  TIP3      OH2            -5.7361287078        7.4954436235       -2.9929841586  W2        5238            0.0000000000
     15713      5238  TIP3      H1             -5.9316787078        8.1011236235       -3.7079241586  W2        5238            0.0000000000
     15714      5238  TIP3      H2             -5.5548687078        6.6619636235       -3.4273541586  W2        5238            0.0000000000
     15715      5239  TIP3      OH2           -14.5233087078        7.7327136235        2.3311658414  W2        5239            0.0000000000
     15716      5239  TIP3      H1            -14.5613687078        8.1328736235        3.1998758414  W2        5239            0.0000000000
     15717      5239  TIP3      H2            -15.0141987078        6.9159536235        2.4214558414  W2        5239            0.0000000000
     15718      5240  TIP3      OH2           -11.1575687078        5.1069436235      -10.8702341586  W2        5240            0.0000000000
     15719      5240  TIP3      H1            -11.5884987078        4.6619536235      -10.1404941586  W2        5240            0.0000000000
     15720      5240  TIP3      H2            -11.8756987078        5.4785736235      -11.3824841586  W2        5240            0.0000000000
     15721      5241  TIP3      OH2           -17.9152287078        4.8488936235       -3.8183641586  W2        5241            0.0000000000
     15722      5241  TIP3      H1            -17.2844587078        4.8201036235       -3.0989741586  W2        5241            0.0000000000
     15723      5241  TIP3      H2            -17.4657987078        4.4237636235       -4.5487741586  W2        5241            0.0000000000
     15724      5242  TIP3      OH2           -16.6410187078        5.5950936235       -8.3943241586  W2        5242            0.0000000000
     15725      5242  TIP3      H1            -16.1668487078        6.1860836235       -8.9792341586  W2        5242            0.0000000000
     15726      5242  TIP3      H2            -17.3583787078        6.1253836235       -8.0473141586  W2        5242            0.0000000000
     15727      5243  TIP3      OH2            -6.4722087078        9.1335736235        1.6782558414  W2        5243            0.0000000000
     15728      5243  TIP3      H1             -6.1487287078        8.5025436235        1.0353058414  W2        5243            0.0000000000
     15729      5243  TIP3      H2             -6.9122787078        8.5987936235        2.3389958414  W2        5243            0.0000000000
     15730      5244  TIP3      OH2            -9.6949187078        5.0611236235       -3.5376241586  W2        5244            0.0000000000
     15731      5244  TIP3      H1            -10.6058087078        5.1178036235       -3.2490241586  W2        5244            0.0000000000
     15732      5244  TIP3      H2             -9.1896287078        5.0006736235       -2.7269041586  W2        5244            0.0000000000
     15733      5245  TIP3      OH2           -14.8665787078        6.6897536235       -4.7108641586  W2        5245            0.0000000000
     15734      5245  TIP3      H1            -15.7557787078        6.7893036235       -5.0509041586  W2        5245            0.0000000000
     15735      5245  TIP3      H2            -14.5700887078        5.8480536235       -5.0570741586  W2        5245            0.0000000000
     15736      5246  TIP3      OH2           -11.2133987078        6.6900136235       -7.0544041586  W2        5246            0.0000000000
     15737      5246  TIP3      H1            -10.2818487078        6.8190136235       -6.8760941586  W2        5246            0.0000000000
     15738      5246  TIP3      H2            -11.4283687078        7.3594436235       -7.7039341586  W2        5246            0.0000000000
     15739      5247  TIP3      OH2            -5.2897287078        4.2957536235       -0.2734441586  W2        5247            0.0000000000
     15740      5247  TIP3      H1             -5.9665687078        4.4270636235        0.3905258414  W2        5247            0.0000000000
     15741      5247  TIP3      H2             -5.7752387078        4.1407036235       -1.0836741586  W2        5247            0.0000000000
     15742      5248  TIP3      OH2           -12.5393787078        7.8842336235       -9.4877941586  W2        5248            0.0000000000
     15743      5248  TIP3      H1            -13.0818687078        7.5046136235      -10.1790341586  W2        5248            0.0000000000
     15744      5248  TIP3      H2            -11.7058887078        8.0787036235       -9.9163841586  W2        5248            0.0000000000
     15745      5249  TIP3      OH2            -2.0022187078       19.9672936235        6.0033158414  W2        5249            0.0000000000
     15746      5249  TIP3      H1             -1.8023487078       20.3914836235        5.1688458414  W2        5249            0.0000000000
     15747      5249  TIP3      H2             -1.3468487078       20.3111136235        6.6103558414  W2        5249            0.0000000000
     15748      5250  TIP3      OH2           -14.4042387078       12.4414236235        5.6113658414  W2        5250            0.0000000000
     15749      5250  TIP3      H1            -13.6719987078       12.6960136235        6.1728158414  W2        5250            0.0000000000
     15750      5250  TIP3      H2            -15.1843687078       12.6459636235        6.1269058414  W2        5250            0.0000000000
     15751      5251  TIP3      OH2            -8.3749487078        7.8484236235       -1.6506641586  W2        5251            0.0000000000
     15752      5251  TIP3      H1             -7.8106087078        7.3020836235       -2.1977041586  W2        5251            0.0000000000
     15753      5251  TIP3      H2             -8.5226087078        7.3266136235       -0.8619041586  W2        5251            0.0000000000
     15754      5252  TIP3      OH2           -13.3729787078        3.9850336235       -5.2321841586  W2        5252            0.0000000000
     15755      5252  TIP3      H1            -13.6900287078        3.0825636235       -5.2676441586  W2        5252            0.0000000000
     15756      5252  TIP3      H2            -12.5915687078        3.9867736235       -5.7850241586  W2        5252            0.0000000000
     15757      5253  TIP3      OH2            -9.7483587078        6.2370336235        0.7633758414  W2        5253            0.0000000000
     15758      5253  TIP3      H1            -10.5838287078        6.6909836235        0.8736158414  W2        5253            0.0000000000
     15759      5253  TIP3      H2             -9.2242987078        6.5128836235        1.5153658414  W2        5253            0.0000000000
     15760      5254  TIP3      OH2            -9.2040987078       12.4498036235       -7.5519841586  W2        5254            0.0000000000
     15761      5254  TIP3      H1             -9.9489987078       11.9423336235       -7.8741941586  W2        5254            0.0000000000
     15762      5254  TIP3      H2             -9.3383787078       12.4986036235       -6.6055041586  W2        5254            0.0000000000
     15763      5255  TIP3      OH2            -2.0542087078       11.5826236235        1.2347758414  W2        5255            0.0000000000
     15764      5255  TIP3      H1             -1.4123287078       12.0392536235        0.6909958414  W2        5255            0.0000000000
     15765      5255  TIP3      H2             -2.8845187078       11.6958636235        0.7721858414  W2        5255            0.0000000000
     15766      5256  TIP3      OH2            -5.3064187078        5.2637936235       -9.3527241586  W2        5256            0.0000000000
     15767      5256  TIP3      H1             -6.2449987078        5.3753536235       -9.5038441586  W2        5256            0.0000000000
     15768      5256  TIP3      H2             -5.0092087078        6.1204836235       -9.0461541586  W2        5256            0.0000000000
     15769      5257  TIP3      OH2            -7.6848887078       12.6341336235        3.6849258414  W2        5257            0.0000000000
     15770      5257  TIP3      H1             -8.0302787078       12.2523736235        4.4918858414  W2        5257            0.0000000000
     15771      5257  TIP3      H2             -7.8848787078       13.5674936235        3.7562158414  W2        5257            0.0000000000
     15772      5258  TIP3      OH2            -4.5880687078        7.1310636235       -7.6919841586  W2        5258            0.0000000000
     15773      5258  TIP3      H1             -3.6961687078        6.9935636235       -7.3728641586  W2        5258            0.0000000000
     15774      5258  TIP3      H2             -4.5317087078        7.9216736235       -8.2286341586  W2        5258            0.0000000000
     15775      5259  TIP3      OH2           -14.0792687078       11.7448036235       -1.7821941586  W2        5259            0.0000000000
     15776      5259  TIP3      H1            -13.3345487078       11.7423736235       -2.3835441586  W2        5259            0.0000000000
     15777      5259  TIP3      H2            -14.0016087078       10.9211836235       -1.3006841586  W2        5259            0.0000000000
     15778      5260  TIP3      OH2            -7.0786887078       13.9082336235       -8.5265241586  W2        5260            0.0000000000
     15779      5260  TIP3      H1             -7.3738487078       14.7350236235       -8.1450441586  W2        5260            0.0000000000
     15780      5260  TIP3      H2             -7.7816887078       13.2889236235       -8.3303841586  W2        5260            0.0000000000
     15781      5261  TIP3      OH2           -17.0712987078       10.2054936235        3.5326558414  W2        5261            0.0000000000
     15782      5261  TIP3      H1            -16.8484387078        9.7874536235        4.3644058414  W2        5261            0.0000000000
     15783      5261  TIP3      H2            -17.6732887078        9.5929936235        3.1099358414  W2        5261            0.0000000000
     15784      5262  TIP3      OH2           -10.0548087078        9.7224836235        5.7456258414  W2        5262            0.0000000000
     15785      5262  TIP3      H1            -10.3507287078        9.5567836235        4.8505358414  W2        5262            0.0000000000
     15786      5262  TIP3      H2             -9.1232887078        9.5025136235        5.7350158414  W2        5262            0.0000000000
     15787      5263  TIP3      OH2            -5.4345287078       15.0956836235        3.6354258414  W2        5263            0.0000000000
     15788      5263  TIP3      H1             -6.3350987078       15.2789436235        3.3678158414  W2        5263            0.0000000000
     15789      5263  TIP3      H2             -5.4004187078       15.3546136235        4.5563058414  W2        5263            0.0000000000
     15790      5264  TIP3      OH2             0.2968012922        7.3404736235       -7.9973141586  W2        5264            0.0000000000
     15791      5264  TIP3      H1             -0.2575687078        6.9442736235       -8.6695641586  W2        5264            0.0000000000
     15792      5264  TIP3      H2              0.3971612922        8.2509936235       -8.2749841586  W2        5264            0.0000000000
     15793      5265  TIP3      OH2             0.2600012922       13.1406436235        4.8398358414  W2        5265            0.0000000000
     15794      5265  TIP3      H1             -0.5911487078       13.3790236235        4.4724758414  W2        5265            0.0000000000
     15795      5265  TIP3      H2              0.8503412922       13.1239636235        4.0865458414  W2        5265            0.0000000000
     15796      5266  TIP3      OH2            -1.4080287078       16.1265136235       -7.5321041586  W2        5266            0.0000000000
     15797      5266  TIP3      H1             -1.7809187078       15.3008936235       -7.2230441586  W2        5266            0.0000000000
     15798      5266  TIP3      H2             -1.1306787078       15.9434536235       -8.4297641586  W2        5266            0.0000000000
     15799      5267  TIP3      OH2            -4.2476387078       10.9344636235       -0.5109141586  W2        5267            0.0000000000
     15800      5267  TIP3      H1             -5.1759487078       10.7026536235       -0.5379841586  W2        5267            0.0000000000
     15801      5267  TIP3      H2             -3.7965287078       10.1574436235       -0.8410341586  W2        5267            0.0000000000
     15802      5268  TIP3      OH2           -11.7043287078       15.2626236235       -4.3780441586  W2        5268            0.0000000000
     15803      5268  TIP3      H1            -11.1771087078       16.0360636235       -4.5781641586  W2        5268            0.0000000000
     15804      5268  TIP3      H2            -12.5844787078       15.4875436235       -4.6796441586  W2        5268            0.0000000000
     15805      5269  TIP3      OH2           -15.9495587078       10.1250336235       -9.7908041586  W2        5269            0.0000000000
     15806      5269  TIP3      H1            -15.3335687078       10.7517536235       -9.4113241586  W2        5269            0.0000000000
     15807      5269  TIP3      H2            -16.8112987078       10.4410136235       -9.5191541586  W2        5269            0.0000000000
     15808      5270  TIP3      OH2           -10.2770987078       12.9256136235       -4.8016141586  W2        5270            0.0000000000
     15809      5270  TIP3      H1            -10.5180987078       13.8510536235       -4.7600841586  W2        5270            0.0000000000
     15810      5270  TIP3      H2            -11.0177387078       12.4667436235       -4.4052241586  W2        5270            0.0000000000
     15811      5271  TIP3      OH2            -9.7624387078       17.0749736235        1.5134958414  W2        5271            0.0000000000
     15812      5271  TIP3      H1             -9.3999687078       17.9295336235        1.2799358414  W2        5271            0.0000000000
     15813      5271  TIP3      H2             -9.2309187078       16.7831336235        2.2541258414  W2        5271            0.0000000000
     15814      5272  TIP3      OH2           -11.5940187078       17.9473736235       -5.2563941586  W2        5272            0.0000000000
     15815      5272  TIP3      H1            -12.5439687078       18.0531136235       -5.2050641586  W2        5272            0.0000000000
     15816      5272  TIP3      H2            -11.2422087078       18.7681136235       -4.9116441586  W2        5272            0.0000000000
     15817      5273  TIP3      OH2            -6.2183587078       13.1740436235        1.2140558414  W2        5273            0.0000000000
     15818      5273  TIP3      H1             -6.6442287078       12.9462136235        2.0404558414  W2        5273            0.0000000000
     15819      5273  TIP3      H2             -5.6377787078       12.4352236235        1.0315858414  W2        5273            0.0000000000
     15820      5274  TIP3      OH2            -4.0154687078       14.1030936235       -9.7120441586  W2        5274            0.0000000000
     15821      5274  TIP3      H1             -3.6621587078       13.7230736235       -8.9076941586  W2        5274            0.0000000000
     15822      5274  TIP3      H2             -4.9641187078       14.0095736235       -9.6251141586  W2        5274            0.0000000000
     15823      5275  TIP3      OH2            -3.5599387078       17.7259936235        3.6835358414  W2        5275            0.0000000000
     15824      5275  TIP3      H1             -4.1616187078       17.1702836235        3.1881658414  W2        5275            0.0000000000
     15825      5275  TIP3      H2             -3.2785687078       18.3929736235        3.0572758414  W2        5275            0.0000000000
     15826      5276  TIP3      OH2             0.4879712922       18.5823436235       -9.5110241586  W2        5276            0.0000000000
     15827      5276  TIP3      H1              1.2317612922       19.1683936235       -9.6508641586  W2        5276            0.0000000000
     15828      5276  TIP3      H2             -0.2062187078       19.1509236235       -9.1777841586  W2        5276            0.0000000000
     15829      5277  TIP3      OH2           -15.4373487078        4.9587636235        3.0907958414  W2        5277            0.0000000000
     15830      5277  TIP3      H1            -16.3301187078        5.2973036235        3.0231958414  W2        5277            0.0000000000
     15831      5277  TIP3      H2            -15.5360687078        4.1033736235        3.5088758414  W2        5277            0.0000000000
     15832      5278  TIP3      OH2            -3.1495387078       12.7752936235       -7.4852541586  W2        5278            0.0000000000
     15833      5278  TIP3      H1             -3.4267787078       12.0472236235       -6.9291441586  W2        5278            0.0000000000
     15834      5278  TIP3      H2             -2.2222387078       12.8944936235       -7.2799941586  W2        5278            0.0000000000
     15835      5279  TIP3      OH2           -15.7861487078       16.7632036235        1.5257358414  W2        5279            0.0000000000
     15836      5279  TIP3      H1            -15.5691187078       15.8314436235        1.4947058414  W2        5279            0.0000000000
     15837      5279  TIP3      H2            -15.5397987078       17.0377036235        2.4090158414  W2        5279            0.0000000000
     15838      5280  TIP3      OH2            -9.9246887078       15.2147036235      -11.2650441586  W2        5280            0.0000000000
     15839      5280  TIP3      H1             -9.6857087078       14.4665136235      -11.8121541586  W2        5280            0.0000000000
     15840      5280  TIP3      H2            -10.1935587078       14.8268736235      -10.4322641586  W2        5280            0.0000000000
     15841      5281  TIP3      OH2           -10.9876287078       14.7850836235       -8.8087841586  W2        5281            0.0000000000
     15842      5281  TIP3      H1            -10.8408287078       14.2650636235       -8.0186941586  W2        5281            0.0000000000
     15843      5281  TIP3      H2            -10.9904587078       15.6918436235       -8.5021941586  W2        5281            0.0000000000
     15844      5282  TIP3      OH2           -14.5345187078       12.0374136235       -8.2982441586  W2        5282            0.0000000000
     15845      5282  TIP3      H1            -15.2205887078       12.3896636235       -7.7312741586  W2        5282            0.0000000000
     15846      5282  TIP3      H2            -14.0117287078       12.8003736235       -8.5448141586  W2        5282            0.0000000000
     15847      5283  TIP3      OH2            -6.7030087078        4.6997936235        1.9806558414  W2        5283            0.0000000000
     15848      5283  TIP3      H1             -6.0042187078        4.7736636235        2.6306258414  W2        5283            0.0000000000
     15849      5283  TIP3      H2             -7.0838687078        3.8352936235        2.1349458414  W2        5283            0.0000000000
     15850      5284  TIP3      OH2            -5.9185187078        4.3519636235       -6.9221141586  W2        5284            0.0000000000
     15851      5284  TIP3      H1             -5.6986887078        4.8235036235       -7.7255741586  W2        5284            0.0000000000
     15852      5284  TIP3      H2             -5.3601187078        4.7462236235       -6.2520541586  W2        5284            0.0000000000
     15853      5285  TIP3      OH2            -8.2499087078       16.4824436235       -8.0593641586  W2        5285            0.0000000000
     15854      5285  TIP3      H1             -9.0662987078       16.9794136235       -8.0069341586  W2        5285            0.0000000000
     15855      5285  TIP3      H2             -7.7202787078       16.9577936235       -8.6994841586  W2        5285            0.0000000000
     15856      5286  TIP3      OH2            -8.7185287078        6.0798436235       -6.0872741586  W2        5286            0.0000000000
     15857      5286  TIP3      H1             -7.9062687078        6.5841636235       -6.0411041586  W2        5286            0.0000000000
     15858      5286  TIP3      H2             -8.9632287078        5.9348136235       -5.1733141586  W2        5286            0.0000000000
     15859      5287  TIP3      OH2            -8.1828887078        7.0661136235        3.0973858414  W2        5287            0.0000000000
     15860      5287  TIP3      H1             -8.0638587078        7.6396536235        3.8544258414  W2        5287            0.0000000000
     15861      5287  TIP3      H2             -7.5274287078        6.3780536235        3.2121658414  W2        5287            0.0000000000
     15862      5288  TIP3      OH2            -7.8348587078        3.1611436235       -5.1491641586  W2        5288            0.0000000000
     15863      5288  TIP3      H1             -8.1815087078        3.7782036235       -4.5047341586  W2        5288            0.0000000000
     15864      5288  TIP3      H2             -7.1761687078        3.6617136235       -5.6306141586  W2        5288            0.0000000000
     15865      5289  TIP3      OH2           -10.9115987078       17.5261636235       -8.0776741586  W2        5289            0.0000000000
     15866      5289  TIP3      H1            -10.7507287078       18.3259136235       -8.5784141586  W2        5289            0.0000000000
     15867      5289  TIP3      H2            -11.1088187078       17.8327636235       -7.1926141586  W2        5289            0.0000000000
     15868      5290  TIP3      OH2           -12.1771587078        4.2240836235       -8.4619141586  W2        5290            0.0000000000
     15869      5290  TIP3      H1            -12.2606787078        5.1123936235       -8.1152741586  W2        5290            0.0000000000
     15870      5290  TIP3      H2            -11.2871287078        3.9587536235       -8.2302341586  W2        5290            0.0000000000
     15871      5291  TIP3      OH2            -1.9783087078        4.9731436235        3.9323558414  W2        5291            0.0000000000
     15872      5291  TIP3      H1             -2.8947287078        5.2353136235        3.8447258414  W2        5291            0.0000000000
     15873      5291  TIP3      H2             -1.6428087078        4.9700436235        3.0358858414  W2        5291            0.0000000000
     15874      5292  TIP3      OH2            -3.3762087078        8.7232436235       -1.9719141586  W2        5292            0.0000000000
     15875      5292  TIP3      H1             -4.1737687078        8.3082636235       -2.3004141586  W2        5292            0.0000000000
     15876      5292  TIP3      H2             -2.9310987078        8.0326136235       -1.4808641586  W2        5292            0.0000000000
     15877      5293  TIP3      OH2           -13.9186287078       14.6513036235       -9.4014641586  W2        5293            0.0000000000
     15878      5293  TIP3      H1            -13.3264787078       15.3507836235       -9.1252241586  W2        5293            0.0000000000
     15879      5293  TIP3      H2            -13.4593287078       14.2182536235      -10.1210041586  W2        5293            0.0000000000
     15880      5294  TIP3      OH2           -15.6027087078        7.3156036235      -10.2855241586  W2        5294            0.0000000000
     15881      5294  TIP3      H1            -15.6474487078        8.2549136235      -10.1068241586  W2        5294            0.0000000000
     15882      5294  TIP3      H2            -16.4903887078        7.0800936235      -10.5553141586  W2        5294            0.0000000000
     15883      5295  TIP3      OH2            -2.2897487078       17.9794936235       -0.3495641586  W2        5295            0.0000000000
     15884      5295  TIP3      H1             -2.4453187078       18.6579336235       -1.0066341586  W2        5295            0.0000000000
     15885      5295  TIP3      H2             -1.3571087078       18.0514236235       -0.1465041586  W2        5295            0.0000000000
     15886      5296  TIP3      OH2           -14.7945087078        2.0972636235       -1.6124241586  W2        5296            0.0000000000
     15887      5296  TIP3      H1            -15.0235287078        2.1565136235       -2.5399241586  W2        5296            0.0000000000
     15888      5296  TIP3      H2            -15.2371687078        1.3058136235       -1.3060141586  W2        5296            0.0000000000
     15889      5297  TIP3      OH2           -15.8641787078       16.0379736235       -5.4518441586  W2        5297            0.0000000000
     15890      5297  TIP3      H1            -16.6963187078       16.5102436235       -5.4247041586  W2        5297            0.0000000000
     15891      5297  TIP3      H2            -15.3183487078       16.5477336235       -6.0505341586  W2        5297            0.0000000000
     15892      5298  TIP3      OH2           -16.5758087078       18.6503436235        5.8779558414  W2        5298            0.0000000000
     15893      5298  TIP3      H1            -16.0355887078       18.4337436235        6.6378758414  W2        5298            0.0000000000
     15894      5298  TIP3      H2            -17.0570087078       17.8449436235        5.6882058414  W2        5298            0.0000000000
     15895      5299  TIP3      OH2           -11.9784687078       17.5697836235        7.4983758414  W2        5299            0.0000000000
     15896      5299  TIP3      H1            -11.2107487078       17.1108636235        7.8392958414  W2        5299            0.0000000000
     15897      5299  TIP3      H2            -11.9998487078       17.3437636235        6.5684958414  W2        5299            0.0000000000
     15898      5300  TIP3      OH2            -7.8865087078       17.0778436235      -11.1264441586  W2        5300            0.0000000000
     15899      5300  TIP3      H1             -8.5304087078       16.4467036235      -10.8050741586  W2        5300            0.0000000000
     15900      5300  TIP3      H2             -7.1246787078       16.5466436235      -11.3580941586  W2        5300            0.0000000000
     15901      5301  TIP3      OH2            -5.4015987078       15.9498936235        6.2275258414  W2        5301            0.0000000000
     15902      5301  TIP3      H1             -5.7526487078       15.0931936235        6.4705658414  W2        5301            0.0000000000
     15903      5301  TIP3      H2             -4.6752787078       16.0925636235        6.8344258414  W2        5301            0.0000000000
     15904      5302  TIP3      OH2            -3.2822187078       16.8948336235      -10.8926441586  W2        5302            0.0000000000
     15905      5302  TIP3      H1             -2.9991787078       16.1003536235      -10.4399541586  W2        5302            0.0000000000
     15906      5302  TIP3      H2             -2.5424287078       17.1279336235      -11.4535341586  W2        5302            0.0000000000
     15907      5303  TIP3      OH2           -16.6688587078       12.4607536235        6.8323858414  W2        5303            0.0000000000
     15908      5303  TIP3      H1            -16.5248087078       11.5588236235        6.5460558414  W2        5303            0.0000000000
     15909      5303  TIP3      H2            -17.4411187078       12.7469636235        6.3446158414  W2        5303            0.0000000000
     15910      5304  TIP3      OH2           -12.3274887078       12.8043236235      -11.0351541586  W2        5304            0.0000000000
     15911      5304  TIP3      H1            -12.2630787078       12.0102836235      -10.5045141586  W2        5304            0.0000000000
     15912      5304  TIP3      H2            -11.6745687078       12.6856036235      -11.7249541586  W2        5304            0.0000000000
     15913      5305  TIP3      OH2           -10.0132487078       12.4305636235        6.2650258414  W2        5305            0.0000000000
     15914      5305  TIP3      H1            -10.3418687078       12.7013736235        5.4077658414  W2        5305            0.0000000000
     15915      5305  TIP3      H2             -9.8614287078       11.4895436235        6.1775258414  W2        5305            0.0000000000
     15916      5306  TIP3      OH2            -6.9751487078       13.8514936235      -11.2993541586  W2        5306            0.0000000000
     15917      5306  TIP3      H1             -7.2437387078       14.0317036235      -10.3984641586  W2        5306            0.0000000000
     15918      5306  TIP3      H2             -7.1815887078       12.9261136235      -11.4307741586  W2        5306            0.0000000000
     15919      5307  TIP3      OH2            -4.2787287078       12.3462936235        3.6482558414  W2        5307            0.0000000000
     15920      5307  TIP3      H1             -3.5332487078       12.9346636235        3.5286558414  W2        5307            0.0000000000
     15921      5307  TIP3      H2             -5.0360487078       12.9282636235        3.7115658414  W2        5307            0.0000000000
     15922      5308  TIP3      OH2           -15.8362087078        9.6610836235        6.2523158414  W2        5308            0.0000000000
     15923      5308  TIP3      H1            -15.4280887078        8.8037436235        6.1313758414  W2        5308            0.0000000000
     15924      5308  TIP3      H2            -16.0964487078        9.6752136235        7.1733458414  W2        5308            0.0000000000
     15925      5309  TIP3      OH2           -11.1781087078       10.7769436235       -8.7293541586  W2        5309            0.0000000000
     15926      5309  TIP3      H1            -11.6379087078       10.2927736235       -8.0435041586  W2        5309            0.0000000000
     15927      5309  TIP3      H2            -10.9232387078       10.1084836235       -9.3653041586  W2        5309            0.0000000000
     15928      5310  TIP3      OH2           -11.8891787078        8.6696536235        3.6266058414  W2        5310            0.0000000000
     15929      5310  TIP3      H1            -12.5075687078        9.3443136235        3.9070758414  W2        5310            0.0000000000
     15930      5310  TIP3      H2            -11.5450587078        8.9910436235        2.7932258414  W2        5310            0.0000000000
     15931      5311  TIP3      OH2           -10.1070687078        9.0201236235      -10.4670341586  W2        5311            0.0000000000
     15932      5311  TIP3      H1            -10.2875687078        8.8652436235      -11.3942041586  W2        5311            0.0000000000
     15933      5311  TIP3      H2             -9.1570187078        9.1279936235      -10.4222441586  W2        5311            0.0000000000
     15934      5312  TIP3      OH2            -6.8693587078       11.1411836235        6.9040858414  W2        5312            0.0000000000
     15935      5312  TIP3      H1             -5.9162387078       11.2250936235        6.8766858414  W2        5312            0.0000000000
     15936      5312  TIP3      H2             -7.0298987078       10.4293636235        7.5235758414  W2        5312            0.0000000000
     15937      5313  TIP3      OH2            -0.7172387078       11.3745436235      -11.0212241586  W2        5313            0.0000000000
     15938      5313  TIP3      H1             -0.9907587078       10.9500936235      -11.8343941586  W2        5313            0.0000000000
     15939      5313  TIP3      H2             -0.6778287078       12.3059936235      -11.2381841586  W2        5313            0.0000000000
     15940      5314  TIP3      OH2           -11.5498087078        6.0247336235        4.7089158414  W2        5314            0.0000000000
     15941      5314  TIP3      H1            -11.3997187078        5.2958636235        4.1068858414  W2        5314            0.0000000000
     15942      5314  TIP3      H2            -11.5475687078        6.8019036235        4.1501358414  W2        5314            0.0000000000
     15943      5315  TIP3      OH2           -11.1372387078        4.3943136235        2.2016558414  W2        5315            0.0000000000
     15944      5315  TIP3      H1            -10.6014887078        4.8459836235        1.5495858414  W2        5315            0.0000000000
     15945      5315  TIP3      H2            -11.9892787078        4.2862936235        1.7790658414  W2        5315            0.0000000000
     15946      5316  TIP3      OH2            -9.5553987078        9.8339336235        2.4411758414  W2        5316            0.0000000000
     15947      5316  TIP3      H1             -8.8049187078        9.6776836235        1.8679558414  W2        5316            0.0000000000
     15948      5316  TIP3      H2             -9.8945687078       10.6855936235        2.1657258414  W2        5316            0.0000000000
     15949      5317  TIP3      OH2            -5.1397787078        7.6491136235        7.4697058414  W2        5317            0.0000000000
     15950      5317  TIP3      H1             -4.9476487078        6.7180536235        7.3581558414  W2        5317            0.0000000000
     15951      5317  TIP3      H2             -4.2821487078        8.0740636235        7.4592458414  W2        5317            0.0000000000
     15952      5318  TIP3      OH2            -3.8230587078       10.4376336235        5.5469758414  W2        5318            0.0000000000
     15953      5318  TIP3      H1             -4.1045587078       11.1470936235        4.9693558414  W2        5318            0.0000000000
     15954      5318  TIP3      H2             -2.8806287078       10.3649336235        5.3960958414  W2        5318            0.0000000000
     15955      5319  TIP3      OH2           -13.0711787078        7.2230836235        6.6204758414  W2        5319            0.0000000000
     15956      5319  TIP3      H1            -13.8382787078        6.6905636235        6.4102358414  W2        5319            0.0000000000
     15957      5319  TIP3      H2            -12.3922787078        6.9131236235        6.0211058414  W2        5319            0.0000000000
     15958      5320  TIP3      OH2           -10.3316887078        1.8508836235        2.6330158414  W2        5320            0.0000000000
     15959      5320  TIP3      H1            -10.4297287078        2.7972036235        2.5276358414  W2        5320            0.0000000000
     15960      5320  TIP3      H2            -11.0740687078        1.4782636235        2.1573658414  W2        5320            0.0000000000
     15961      5321  TIP3      OH2            -9.0676387078        6.1724236235        6.1968558414  W2        5321            0.0000000000
     15962      5321  TIP3      H1             -9.3030987078        5.9530936235        7.0983458414  W2        5321            0.0000000000
     15963      5321  TIP3      H2             -9.8509487078        5.9655436235        5.6871058414  W2        5321            0.0000000000
     15964      5322  TIP3      OH2            -6.3519787078        5.2997736235        5.2722058414  W2        5322            0.0000000000
     15965      5322  TIP3      H1             -7.2994387078        5.3317436235        5.4045358414  W2        5322            0.0000000000
     15966      5322  TIP3      H2             -6.0393087078        4.6744836235        5.9260258414  W2        5322            0.0000000000
     15967      5323  TIP3      OH2            -4.7178287078        3.9338836235        7.2773958414  W2        5323            0.0000000000
     15968      5323  TIP3      H1             -4.8146487078        2.9816136235        7.2715858414  W2        5323            0.0000000000
     15969      5323  TIP3      H2             -5.0395187078        4.2025636235        8.1379458414  W2        5323            0.0000000000
     15970      5324  TIP3      OH2           -14.8908987078        5.1434636235        6.3249458414  W2        5324            0.0000000000
     15971      5324  TIP3      H1            -14.6791587078        4.4370736235        5.7146958414  W2        5324            0.0000000000
     15972      5324  TIP3      H2            -15.0021487078        4.7060636235        7.1690658414  W2        5324            0.0000000000
     15973      5325  TIP3      OH2           -10.1098787078        1.1446236235        5.3042958414  W2        5325            0.0000000000
     15974      5325  TIP3      H1             -9.3980387078        0.5048436235        5.2902058414  W2        5325            0.0000000000
     15975      5325  TIP3      H2            -10.2108387078        1.4114536235        4.3906058414  W2        5325            0.0000000000
     15976      5326  TIP3      OH2            -9.7561287078        2.8274636235        7.3579258414  W2        5326            0.0000000000
     15977      5326  TIP3      H1             -9.8879087078        2.3518436235        6.5377758414  W2        5326            0.0000000000
     15978      5326  TIP3      H2            -10.3553887078        3.5718236235        7.3026358414  W2        5326            0.0000000000
     15979      5327  TIP3      OH2           -10.2098987078       19.7104936235       -9.4656741586  W2        5327            0.0000000000
     15980      5327  TIP3      H1             -9.2768287078       19.8683636235       -9.3218341586  W2        5327            0.0000000000
     15981      5327  TIP3      H2            -10.4740187078       20.3857936235      -10.0905241586  W2        5327            0.0000000000
     15982      5328  TIP3      OH2           -16.6414087078       14.3468736235       -9.9828641586  W2        5328            0.0000000000
     15983      5328  TIP3      H1            -15.7274887078       14.4257636235       -9.7094741586  W2        5328            0.0000000000
     15984      5328  TIP3      H2            -16.6340987078       13.6598336235      -10.6493041586  W2        5328            0.0000000000
     15985      5329  TIP3      OH2           -17.9923487078       19.7397236235       -4.9054741586  W2        5329            0.0000000000
     15986      5329  TIP3      H1            -18.6396387078       19.2778936235       -5.4383541586  W2        5329            0.0000000000
     15987      5329  TIP3      H2            -17.6378887078       19.0680536235       -4.3228541586  W2        5329            0.0000000000
     15988      5330  TIP3      OH2           -17.1224287078       17.8204236235       -3.1008541586  W2        5330            0.0000000000
     15989      5330  TIP3      H1            -17.4567487078       16.9401536235       -2.9288341586  W2        5330            0.0000000000
     15990      5330  TIP3      H2            -16.9001887078       18.1659236235       -2.2362941586  W2        5330            0.0000000000
     15991      5331  TIP3      OH2             0.4260512922       18.6300636235       -0.1203741586  W2        5331            0.0000000000
     15992      5331  TIP3      H1              0.4047212922       18.8149036235        0.8185658414  W2        5331            0.0000000000
     15993      5331  TIP3      H2              1.1166712922       19.1984636235       -0.4612341586  W2        5331            0.0000000000
     15994      5332  TIP3      OH2            -0.0106587078       18.1971736235        2.8015358414  W2        5332            0.0000000000
     15995      5332  TIP3      H1             -0.4977887078       17.4615836235        2.4302758414  W2        5332            0.0000000000
     15996      5332  TIP3      H2              0.5386112922       17.8035636235        3.4794758414  W2        5332            0.0000000000
     15997      5333  TIP3      OH2            -1.5599287078       13.9869836235        7.4395658414  W2        5333            0.0000000000
     15998      5333  TIP3      H1             -2.4258187078       13.8819536235        7.8337958414  W2        5333            0.0000000000
     15999      5333  TIP3      H2             -1.1833387078       14.7453136235        7.8860358414  W2        5333            0.0000000000
     16000      5334  TIP3      OH2            -0.2589587078       12.2433536235       -7.0461841586  W2        5334            0.0000000000
     16001      5334  TIP3      H1              0.5911812922       12.6644436235       -6.9190241586  W2        5334            0.0000000000
     16002      5334  TIP3      H2             -0.2534487078       11.5033636235       -6.4390441586  W2        5334            0.0000000000
     16003      5335  TIP3      OH2             0.1356012922       10.2970936235       -5.2226141586  W2        5335            0.0000000000
     16004      5335  TIP3      H1             -0.5909387078        9.8173536235       -4.8248541586  W2        5335            0.0000000000
     16005      5335  TIP3      H2              0.7169312922       10.5025636235       -4.4904541586  W2        5335            0.0000000000
     16006      5336  TIP3      OH2            -0.1052787078       13.0818436235       -0.2748541586  W2        5336            0.0000000000
     16007      5336  TIP3      H1              0.7281412922       12.7038436235       -0.5554941586  W2        5336            0.0000000000
     16008      5336  TIP3      H2              0.0067512922       14.0249636235       -0.3939441586  W2        5336            0.0000000000
     16009      5337  TIP3      OH2            -1.6190487078       15.9595936235        2.0319858414  W2        5337            0.0000000000
     16010      5337  TIP3      H1             -2.2665187078       16.2847436235        2.6575058414  W2        5337            0.0000000000
     16011      5337  TIP3      H2             -2.1366487078       15.5193636235        1.3578158414  W2        5337            0.0000000000
     16012      5338  TIP3      OH2             0.4039112922       10.1979436235       -8.8314841586  W2        5338            0.0000000000
     16013      5338  TIP3      H1             -0.1179787078       10.5543536235       -9.5503941586  W2        5338            0.0000000000
     16014      5338  TIP3      H2              0.3708312922       10.8727236235       -8.1533941586  W2        5338            0.0000000000
     16015      5339  TIP3      OH2            -1.2471887078        7.4375036235      -10.2807741586  W2        5339            0.0000000000
     16016      5339  TIP3      H1             -1.1507487078        8.1042036235      -10.9608041586  W2        5339            0.0000000000
     16017      5339  TIP3      H2             -1.3872287078        6.6221336235      -10.7622241586  W2        5339            0.0000000000
     16018      5340  TIP3      OH2            -2.0777187078        8.8177436235       -4.6597441586  W2        5340            0.0000000000
     16019      5340  TIP3      H1             -2.2278387078        7.8726036235       -4.6799641586  W2        5340            0.0000000000
     16020      5340  TIP3      H2             -2.4312687078        9.0988836235       -3.8158341586  W2        5340            0.0000000000
     16021      5341  TIP3      OH2           -17.0424787078       10.8959636235       -0.6493641586  W2        5341            0.0000000000
     16022      5341  TIP3      H1            -16.8581887078       10.8141336235       -1.5850741586  W2        5341            0.0000000000
     16023      5341  TIP3      H2            -16.1931887078       10.7716636235       -0.2257241586  W2        5341            0.0000000000
     16024      5342  TIP3      OH2            -1.2214287078       10.7880736235        4.9790858414  W2        5342            0.0000000000
     16025      5342  TIP3      H1             -0.6386987078       10.0533036235        5.1708058414  W2        5342            0.0000000000
     16026      5342  TIP3      H2             -0.6574987078       11.5601036235        5.0256658414  W2        5342            0.0000000000
     16027      5343  TIP3      OH2             0.2752812922        8.6906536235        5.6636258414  W2        5343            0.0000000000
     16028      5343  TIP3      H1             -0.5880487078        8.3118636235        5.4980958414  W2        5343            0.0000000000
     16029      5343  TIP3      H2              0.8796512922        7.9521336235        5.5892058414  W2        5343            0.0000000000
     16030      5344  TIP3      OH2            -1.9998087078        4.8454836235      -11.1632241586  W2        5344            0.0000000000
     16031      5344  TIP3      H1             -1.3892287078        4.4741636235      -10.5264041586  W2        5344            0.0000000000
     16032      5344  TIP3      H2             -2.8366587078        4.4241736235      -10.9672241586  W2        5344            0.0000000000
     16033      5345  TIP3      OH2            -2.3672387078        6.4003236235       -6.1972341586  W2        5345            0.0000000000
     16034      5345  TIP3      H1             -2.0875287078        5.4933636235       -6.0730641586  W2        5345            0.0000000000
     16035      5345  TIP3      H2             -1.6080687078        6.8344736235       -6.5863141586  W2        5345            0.0000000000
     16036      5346  TIP3      OH2            -1.7554087078        6.9820636235       -0.7613441586  W2        5346            0.0000000000
     16037      5346  TIP3      H1             -0.8226087078        7.1940536235       -0.7957441586  W2        5346            0.0000000000
     16038      5346  TIP3      H2             -1.9906587078        7.0832736235        0.1609558414  W2        5346            0.0000000000
     16039      5347  TIP3      OH2            -1.7262187078        7.7185936235        2.0145958414  W2        5347            0.0000000000
     16040      5347  TIP3      H1             -2.5690887078        7.9866336235        2.3805758414  W2        5347            0.0000000000
     16041      5347  TIP3      H2             -1.2837887078        8.5407836235        1.8037058414  W2        5347            0.0000000000
     16042      5348  TIP3      OH2           -17.4449987078        6.1664636235        5.4915158414  W2        5348            0.0000000000
     16043      5348  TIP3      H1            -16.5255087078        6.0442936235        5.7278258414  W2        5348            0.0000000000
     16044      5348  TIP3      H2            -17.8945487078        5.4164336235        5.8808658414  W2        5348            0.0000000000
     16045      5349  TIP3      OH2             0.5569412922        1.6986136235        7.3680958414  W2        5349            0.0000000000
     16046      5349  TIP3      H1              0.9066412922        1.0449636235        6.7625658414  W2        5349            0.0000000000
     16047      5349  TIP3      H2              0.7038912922        2.5360236235        6.9283558414  W2        5349            0.0000000000
     16048      5350  TIP3      OH2            -1.7537587078        3.6632536235       -6.1490341586  W2        5350            0.0000000000
     16049      5350  TIP3      H1             -1.5712587078        3.2144036235       -5.3235341586  W2        5350            0.0000000000
     16050      5350  TIP3      H2             -2.3534687078        3.0786936235       -6.6125741586  W2        5350            0.0000000000
     16051      5351  TIP3      OH2           -16.2237487078        4.4786236235       -1.6171941586  W2        5351            0.0000000000
     16052      5351  TIP3      H1            -15.7785887078        3.6868736235       -1.3152241586  W2        5351            0.0000000000
     16053      5351  TIP3      H2            -15.7574487078        5.1951436235       -1.1866341586  W2        5351            0.0000000000
     16054      5352  TIP3      OH2           -17.9197187078        7.4779236235       -0.5481741586  W2        5352            0.0000000000
     16055      5352  TIP3      H1            -17.4277387078        7.2569736235       -1.3389741586  W2        5352            0.0000000000
     16056      5352  TIP3      H2            -17.5576287078        8.3182636235       -0.2672241586  W2        5352            0.0000000000
     16057      5353  TIP3      OH2             0.0766612922        3.8080736235        5.7172258414  W2        5353            0.0000000000
     16058      5353  TIP3      H1             -0.8407687078        4.0787836235        5.6815758414  W2        5353            0.0000000000
     16059      5353  TIP3      H2              0.1996012922        3.2729136235        4.9331958414  W2        5353            0.0000000000
     16060      5354  TIP3      OH2             0.1128612922        3.7310636235       -9.6210041586  W2        5354            0.0000000000
     16061      5354  TIP3      H1              0.5251212922        3.0096336235      -10.0962041586  W2        5354            0.0000000000
     16062      5354  TIP3      H2              0.7945112922        4.4005236235       -9.5625741586  W2        5354            0.0000000000
     16063      5355  TIP3      OH2           -17.6060687078        3.7358336235       -6.4939341586  W2        5355            0.0000000000
     16064      5355  TIP3      H1            -18.5312287078        3.9444936235       -6.6233841586  W2        5355            0.0000000000
     16065      5355  TIP3      H2            -17.1520787078        4.2199136235       -7.1837041586  W2        5355            0.0000000000
     16066      5356  TIP3      OH2            -2.8353487078       18.7200036235       -4.5481941586  W2        5356            0.0000000000
     16067      5356  TIP3      H1             -2.1830587078       18.3722136235       -5.1562841586  W2        5356            0.0000000000
     16068      5356  TIP3      H2             -2.3249687078       19.2083236235       -3.9022241586  W2        5356            0.0000000000
     16069      5357  TIP3      OH2           -17.6425287078        2.4737336235        1.8503158414  W2        5357            0.0000000000
     16070      5357  TIP3      H1            -18.3074787078        2.2277636235        2.4934058414  W2        5357            0.0000000000
     16071      5357  TIP3      H2            -18.0853987078        3.0957736235        1.2731158414  W2        5357            0.0000000000
     16072      5358  TIP3      OH2           -15.4505987078       15.6491436235        5.9948958414  W2        5358            0.0000000000
     16073      5358  TIP3      H1            -16.2713487078       15.8237936235        5.5343658414  W2        5358            0.0000000000
     16074      5358  TIP3      H2            -15.7028187078       15.5756136235        6.9153358414  W2        5358            0.0000000000
     16075      5359  TIP3      OH2           -12.4963087078       16.6232636235        2.2532958414  W2        5359            0.0000000000
     16076      5359  TIP3      H1            -12.9211987078       17.4331136235        1.9707558414  W2        5359            0.0000000000
     16077      5359  TIP3      H2            -11.5920287078       16.7086736235        1.9512758414  W2        5359            0.0000000000
     16078      5360  TIP3      OH2            -8.1851687078       18.0222636235        5.2126658414  W2        5360            0.0000000000
     16079      5360  TIP3      H1             -8.0004187078       17.6888736235        6.0906958414  W2        5360            0.0000000000
     16080      5360  TIP3      H2             -7.3387187078       18.3321236235        4.8905858414  W2        5360            0.0000000000
     16081      5361  TIP3      OH2            -5.8401287078       19.3081536235        4.4568058414  W2        5361            0.0000000000
     16082      5361  TIP3      H1             -5.1632387078       18.6753836235        4.2167258414  W2        5361            0.0000000000
     16083      5361  TIP3      H2             -5.5182487078       19.7092036235        5.2641358414  W2        5361            0.0000000000
     16084      5362  TIP3      OH2            -0.9227487078        1.8977036235        3.5363058414  W2        5362            0.0000000000
     16085      5362  TIP3      H1             -1.7353987078        2.2227336235        3.1487758414  W2        5362            0.0000000000
     16086      5362  TIP3      H2             -0.6898987078        1.1375536235        3.0032158414  W2        5362            0.0000000000
     16087      5363  TIP3      OH2           -15.0946387078       19.8796536235        2.3008258414  W2        5363            0.0000000000
     16088      5363  TIP3      H1            -15.8149987078       20.3197536235        1.8495958414  W2        5363            0.0000000000
     16089      5363  TIP3      H2            -15.4602387078       19.6291236235        3.1492258414  W2        5363            0.0000000000
     16090      5364  TIP3      OH2           -12.6273787078       19.4800436235        1.3305458414  W2        5364            0.0000000000
     16091      5364  TIP3      H1            -13.4921587078       19.5518936235        1.7345558414  W2        5364            0.0000000000
     16092      5364  TIP3      H2            -12.6824787078       20.0267736235        0.5467958414  W2        5364            0.0000000000
     16093      5365  TIP3      OH2            -7.9168187078       19.3679336235        0.5061458414  W2        5365            0.0000000000
     16094      5365  TIP3      H1             -8.3734187078       19.8969036235       -0.1480141586  W2        5365            0.0000000000
     16095      5365  TIP3      H2             -7.7540187078       19.9710736235        1.2313758414  W2        5365            0.0000000000
     16096      5366  TIP3      OH2            -5.5891887078       18.2458936235        1.4511758414  W2        5366            0.0000000000
     16097      5366  TIP3      H1             -6.4938187078       18.4109136235        1.1853858414  W2        5366            0.0000000000
     16098      5366  TIP3      H2             -5.1603287078       19.0991136235        1.3855158414  W2        5366            0.0000000000
     16099      5367  TIP3      OH2            -2.9849987078       19.8158036235        1.7459558414  W2        5367            0.0000000000
     16100      5367  TIP3      H1             -3.1667987078       20.7316936235        1.5354458414  W2        5367            0.0000000000
     16101      5367  TIP3      H2             -2.8082187078       19.4055136235        0.8994158414  W2        5367            0.0000000000
     16102      5368  TIP3      OH2           -15.6798287078       18.5029036235       -0.7889941586  W2        5368            0.0000000000
     16103      5368  TIP3      H1            -15.6982287078       18.0774136235        0.0682358414  W2        5368            0.0000000000
     16104      5368  TIP3      H2            -14.8750387078       18.1844036235       -1.1977741586  W2        5368            0.0000000000
     16105      5369  TIP3      OH2           -13.5385187078       17.2127736235       -2.1340041586  W2        5369            0.0000000000
     16106      5369  TIP3      H1            -13.7574487078       16.2965136235       -1.9644041586  W2        5369            0.0000000000
     16107      5369  TIP3      H2            -12.7142987078       17.3528136235       -1.6678641586  W2        5369            0.0000000000
     16108      5370  TIP3      OH2           -11.0012687078       17.6827036235       -1.2852041586  W2        5370            0.0000000000
     16109      5370  TIP3      H1            -10.7886987078       16.7946036235       -1.5721141586  W2        5370            0.0000000000
     16110      5370  TIP3      H2            -10.9367587078       17.6484736235       -0.3308041586  W2        5370            0.0000000000
     16111      5371  TIP3      OH2            -7.4928987078        3.3467636235       -2.1408741586  W2        5371            0.0000000000
     16112      5371  TIP3      H1             -8.1672187078        2.7173236235       -1.8852941586  W2        5371            0.0000000000
     16113      5371  TIP3      H2             -6.9289787078        2.8626536235       -2.7440841586  W2        5371            0.0000000000
     16114      5372  TIP3      OH2            -2.3501787078        1.4541636235       -2.0281641586  W2        5372            0.0000000000
     16115      5372  TIP3      H1             -1.7464187078        2.0017036235       -2.5300641586  W2        5372            0.0000000000
     16116      5372  TIP3      H2             -3.2199787078        1.7732036235       -2.2687541586  W2        5372            0.0000000000
     16117      5373  TIP3      OH2            -0.6231387078        2.5930336235       -3.6950741586  W2        5373            0.0000000000
     16118      5373  TIP3      H1             -0.0113887078        2.0786036235       -4.2217141586  W2        5373            0.0000000000
     16119      5373  TIP3      H2             -0.2407987078        3.4702436235       -3.6716341586  W2        5373            0.0000000000
     16120      5374  TIP3      OH2           -15.1661487078        1.9807936235       -4.3188841586  W2        5374            0.0000000000
     16121      5374  TIP3      H1            -15.9431687078        1.7462836235       -4.8262941586  W2        5374            0.0000000000
     16122      5374  TIP3      H2            -14.6357887078        1.1840036235       -4.3100841586  W2        5374            0.0000000000
     16123      5375  TIP3      OH2           -16.3298087078        1.7786036235       -8.5152741586  W2        5375            0.0000000000
     16124      5375  TIP3      H1            -15.8907387078        2.3896536235       -9.1069241586  W2        5375            0.0000000000
     16125      5375  TIP3      H2            -16.9635687078        2.3170136235       -8.0412741586  W2        5375            0.0000000000
     16126      5376  TIP3      OH2           -10.5868887078        1.9075036235       -4.5055741586  W2        5376            0.0000000000
     16127      5376  TIP3      H1             -9.7125487078        2.2959336235       -4.5351441586  W2        5376            0.0000000000
     16128      5376  TIP3      H2            -10.7228087078        1.6922836235       -3.5828541586  W2        5376            0.0000000000
     16129      5377  TIP3      OH2            -5.0300487078        1.9374836235       -2.8564041586  W2        5377            0.0000000000
     16130      5377  TIP3      H1             -4.9538887078        2.0326436235       -3.8058041586  W2        5377            0.0000000000
     16131      5377  TIP3      H2             -5.3051287078        1.0297736235       -2.7274941586  W2        5377            0.0000000000
     16132      5378  TIP3      OH2            -3.6767887078        1.9632636235       -7.1639041586  W2        5378            0.0000000000
     16133      5378  TIP3      H1             -4.3796787078        2.5781836235       -7.3737641586  W2        5378            0.0000000000
     16134      5378  TIP3      H2             -4.1216487078        1.1259336235       -7.0328141586  W2        5378            0.0000000000
     16135      5379  TIP3      OH2           -16.4288587078       17.7268236235       -7.6177641586  W2        5379            0.0000000000
     16136      5379  TIP3      H1            -17.1138687078       17.6887136235       -8.2852541586  W2        5379            0.0000000000
     16137      5379  TIP3      H2            -16.4251387078       18.6395836235       -7.3295541586  W2        5379            0.0000000000
     16138      5380  TIP3      OH2           -14.4688987078        3.6947536235      -10.0728641586  W2        5380            0.0000000000
     16139      5380  TIP3      H1            -13.9775587078        3.0649936235      -10.6003141586  W2        5380            0.0000000000
     16140      5380  TIP3      H2            -13.8452687078        3.9906936235       -9.4097441586  W2        5380            0.0000000000
     16141      5381  TIP3      OH2            -9.4428887078        3.9879036235       -7.6158141586  W2        5381            0.0000000000
     16142      5381  TIP3      H1             -9.2647587078        3.3412236235       -6.9329541586  W2        5381            0.0000000000
     16143      5381  TIP3      H2             -9.4962687078        4.8216736235       -7.1487041586  W2        5381            0.0000000000
     16144      5382  TIP3      OH2            -7.5645087078       18.9363136235       -9.2201441586  W2        5382            0.0000000000
     16145      5382  TIP3      H1             -6.6984887078       19.3030536235       -9.3983241586  W2        5382            0.0000000000
     16146      5382  TIP3      H2             -7.8112287078       18.4971136235      -10.0340641586  W2        5382            0.0000000000
     16147      5383  TIP3      OH2            -0.8555487078       18.4993436235       -6.5410341586  W2        5383            0.0000000000
     16148      5383  TIP3      H1             -1.0498387078       17.7515536235       -7.1060741586  W2        5383            0.0000000000
     16149      5383  TIP3      H2             -0.8945387078       19.2573536235       -7.1242441586  W2        5383            0.0000000000
     16150      5384  TIP3      OH2           -15.2083487078        2.4949836235        5.1987358414  W2        5384            0.0000000000
     16151      5384  TIP3      H1            -15.5745287078        1.7292436235        5.6412058414  W2        5384            0.0000000000
     16152      5384  TIP3      H2            -14.2954987078        2.5240036235        5.4852458414  W2        5384            0.0000000000
     16153      5385  TIP3      OH2           -13.2352687078        1.8454236235        6.7344458414  W2        5385            0.0000000000
     16154      5385  TIP3      H1            -12.3369087078        1.5714436235        6.5497858414  W2        5385            0.0000000000
     16155      5385  TIP3      H2            -13.6219587078        1.1030236235        7.1987058414  W2        5385            0.0000000000
     16156      5386  TIP3      OH2           -14.6107387078       18.6469036235      -10.5925541586  W2        5386            0.0000000000
     16157      5386  TIP3      H1            -14.8782787078       18.9331936235       -9.7192441586  W2        5386            0.0000000000
     16158      5386  TIP3      H2            -13.8394787078       18.1008236235      -10.4403041586  W2        5386            0.0000000000
     16159      5387  TIP3      OH2            -4.8140387078        1.1779536235        6.9167258414  W2        5387            0.0000000000
     16160      5387  TIP3      H1             -4.7373187078        0.7520236235        7.7704958414  W2        5387            0.0000000000
     16161      5387  TIP3      H2             -3.9203787078        1.1914236235        6.5740758414  W2        5387            0.0000000000
     16162      5388  TIP3      OH2            -1.6379287078       17.2505836235        5.6091458414  W2        5388            0.0000000000
     16163      5388  TIP3      H1             -2.4197387078       17.0643836235        5.0892058414  W2        5388            0.0000000000
     16164      5388  TIP3      H2             -1.7099387078       18.1800136235        5.8263958414  W2        5388            0.0000000000
     16165      5389  TIP3      OH2            12.7681112922       11.1370236235       -4.3601341586  W2        5389            0.0000000000
     16166      5389  TIP3      H1             12.8572212922       12.0808436235       -4.4924241586  W2        5389            0.0000000000
     16167      5389  TIP3      H2             12.1298712922       10.8616636235       -5.0181941586  W2        5389            0.0000000000
     16168      5390  TIP3      OH2            11.7012412922       10.3920936235       -0.9413141586  W2        5390            0.0000000000
     16169      5390  TIP3      H1             11.6629912922        9.7457236235       -0.2363541586  W2        5390            0.0000000000
     16170      5390  TIP3      H2             11.3788912922        9.9255336235       -1.7124441586  W2        5390            0.0000000000
     16171      5391  TIP3      OH2             4.0697412922       10.0063036235        0.6516758414  W2        5391            0.0000000000
     16172      5391  TIP3      H1              4.1109512922        9.3806336235        1.3749158414  W2        5391            0.0000000000
     16173      5391  TIP3      H2              4.7725112922       10.6301636235        0.8337158414  W2        5391            0.0000000000
     16174      5392  TIP3      OH2            15.4072612922       13.3311336235       -2.6398041586  W2        5392            0.0000000000
     16175      5392  TIP3      H1             14.9665312922       12.6107336235       -2.1892441586  W2        5392            0.0000000000
     16176      5392  TIP3      H2             15.3942312922       14.0518536235       -2.0100341586  W2        5392            0.0000000000
     16177      5393  TIP3      OH2             4.9930512922       14.4561936235       -0.8134141586  W2        5393            0.0000000000
     16178      5393  TIP3      H1              4.6235712922       13.6542436235       -1.1829841586  W2        5393            0.0000000000
     16179      5393  TIP3      H2              5.9341612922       14.2876836235       -0.7670741586  W2        5393            0.0000000000
     16180      5394  TIP3      OH2             1.6031012922        8.1164536235       -5.4205341586  W2        5394            0.0000000000
     16181      5394  TIP3      H1              1.1554412922        8.9623236235       -5.4388841586  W2        5394            0.0000000000
     16182      5394  TIP3      H2              1.0422212922        7.5368736235       -5.9360241586  W2        5394            0.0000000000
     16183      5395  TIP3      OH2             2.3137112922       10.2784136235       -3.2947341586  W2        5395            0.0000000000
     16184      5395  TIP3      H1              2.5270612922        9.5085736235       -2.7674341586  W2        5395            0.0000000000
     16185      5395  TIP3      H2              3.0514712922       10.3680836235       -3.8979741586  W2        5395            0.0000000000
     16186      5396  TIP3      OH2            12.5188112922       18.4353036235       -2.4277641586  W2        5396            0.0000000000
     16187      5396  TIP3      H1             13.1384512922       17.7587736235       -2.7008441586  W2        5396            0.0000000000
     16188      5396  TIP3      H2             12.3105512922       18.2173836235       -1.5192741586  W2        5396            0.0000000000
     16189      5397  TIP3      OH2            10.0906812922       12.8242336235       -0.5352141586  W2        5397            0.0000000000
     16190      5397  TIP3      H1             10.3944712922       12.1383736235       -1.1298041586  W2        5397            0.0000000000
     16191      5397  TIP3      H2             10.8120812922       12.9431036235        0.0825858414  W2        5397            0.0000000000
     16192      5398  TIP3      OH2            18.7536612922        4.4257636235        0.3254058414  W2        5398            0.0000000000
     16193      5398  TIP3      H1             18.8028812922        5.0358836235        1.0613158414  W2        5398            0.0000000000
     16194      5398  TIP3      H2             19.1791712922        4.8868536235       -0.3974841586  W2        5398            0.0000000000
     16195      5399  TIP3      OH2            13.2313812922        7.2184736235       -0.2077341586  W2        5399            0.0000000000
     16196      5399  TIP3      H1             13.3739712922        6.2721736235       -0.1875741586  W2        5399            0.0000000000
     16197      5399  TIP3      H2             13.1252812922        7.4254536235       -1.1362441586  W2        5399            0.0000000000
     16198      5400  TIP3      OH2             6.3862112922        5.3201136235       -2.9352541586  W2        5400            0.0000000000
     16199      5400  TIP3      H1              6.4293212922        6.1799636235       -3.3536241586  W2        5400            0.0000000000
     16200      5400  TIP3      H2              5.9286212922        4.7675836235       -3.5689341586  W2        5400            0.0000000000
     16201      5401  TIP3      OH2            14.1084812922        5.4506736235       -4.5344241586  W2        5401            0.0000000000
     16202      5401  TIP3      H1             14.7549112922        5.1219936235       -3.9096641586  W2        5401            0.0000000000
     16203      5401  TIP3      H2             14.6184212922        5.9685736235       -5.1572841586  W2        5401            0.0000000000
     16204      5402  TIP3      OH2             3.0063612922        7.7166936235       -2.1731141586  W2        5402            0.0000000000
     16205      5402  TIP3      H1              3.6600212922        7.1668636235       -1.7411041586  W2        5402            0.0000000000
     16206      5402  TIP3      H2              3.0302912922        7.4425936235       -3.0899141586  W2        5402            0.0000000000
     16207      5403  TIP3      OH2             8.1628112922        9.2668236235       -2.9579641586  W2        5403            0.0000000000
     16208      5403  TIP3      H1              8.7789112922        8.7403636235       -2.4485641586  W2        5403            0.0000000000
     16209      5403  TIP3      H2              7.5766912922        8.6266936235       -3.3616041586  W2        5403            0.0000000000
     16210      5404  TIP3      OH2            19.1451212922        5.9036836235        2.5613858414  W2        5404            0.0000000000
     16211      5404  TIP3      H1             18.4565812922        6.5617536235        2.4660458414  W2        5404            0.0000000000
     16212      5404  TIP3      H2             19.1605812922        5.7064736235        3.4979258414  W2        5404            0.0000000000
     16213      5405  TIP3      OH2             5.1964012922        4.2379536235        1.1388258414  W2        5405            0.0000000000
     16214      5405  TIP3      H1              4.9775712922        4.7680136235        0.3724258414  W2        5405            0.0000000000
     16215      5405  TIP3      H2              4.5284912922        4.4645036235        1.7859658414  W2        5405            0.0000000000
     16216      5406  TIP3      OH2            12.5653812922       13.7380636235       -5.3172641586  W2        5406            0.0000000000
     16217      5406  TIP3      H1             12.2698912922       13.4152936235       -6.1685741586  W2        5406            0.0000000000
     16218      5406  TIP3      H2             12.2411612922       14.6377336235       -5.2760041586  W2        5406            0.0000000000
     16219      5407  TIP3      OH2             7.7655412922       11.9135236235        1.4261958414  W2        5407            0.0000000000
     16220      5407  TIP3      H1              7.0254512922       12.5116736235        1.5297158414  W2        5407            0.0000000000
     16221      5407  TIP3      H2              8.4794912922       12.4674836235        1.1105558414  W2        5407            0.0000000000
     16222      5408  TIP3      OH2            15.8723212922        4.7416036235       -2.5538341586  W2        5408            0.0000000000
     16223      5408  TIP3      H1             15.6571212922        3.9759436235       -2.0212341586  W2        5408            0.0000000000
     16224      5408  TIP3      H2             16.5280612922        5.2140636235       -2.0409841586  W2        5408            0.0000000000
     16225      5409  TIP3      OH2             4.7901312922        6.1301336235       -0.9089541586  W2        5409            0.0000000000
     16226      5409  TIP3      H1              5.4037612922        6.7628936235       -0.5357141586  W2        5409            0.0000000000
     16227      5409  TIP3      H2              5.3022012922        5.6576336235       -1.5652641586  W2        5409            0.0000000000
     16228      5410  TIP3      OH2             6.1729712922       13.8778236235        2.2133458414  W2        5410            0.0000000000
     16229      5410  TIP3      H1              6.1677312922       14.7571736235        1.8352758414  W2        5410            0.0000000000
     16230      5410  TIP3      H2              5.3193812922       13.7942336235        2.6383358414  W2        5410            0.0000000000
     16231      5411  TIP3      OH2             2.2940612922       13.5486136235       -7.0047241586  W2        5411            0.0000000000
     16232      5411  TIP3      H1              2.0221512922       13.7777136235       -7.8934341586  W2        5411            0.0000000000
     16233      5411  TIP3      H2              2.3396312922       14.3864936235       -6.5441941586  W2        5411            0.0000000000
     16234      5412  TIP3      OH2            15.9190312922       15.1702036235       -0.2918741586  W2        5412            0.0000000000
     16235      5412  TIP3      H1             14.9774012922       15.2285936235       -0.1301841586  W2        5412            0.0000000000
     16236      5412  TIP3      H2             16.1956412922       16.0762536235       -0.4289041586  W2        5412            0.0000000000
     16237      5413  TIP3      OH2            16.2197312922        3.4567336235        1.1255158414  W2        5413            0.0000000000
     16238      5413  TIP3      H1             15.4836512922        4.0674436235        1.0876458414  W2        5413            0.0000000000
     16239      5413  TIP3      H2             16.9031312922        3.8716336235        0.5991558414  W2        5413            0.0000000000
     16240      5414  TIP3      OH2             9.2228712922        1.5434636235       -1.4086841586  W2        5414            0.0000000000
     16241      5414  TIP3      H1              9.1052912922        0.5950636235       -1.4628541586  W2        5414            0.0000000000
     16242      5414  TIP3      H2              8.3678812922        1.8760736235       -1.1355741586  W2        5414            0.0000000000
     16243      5415  TIP3      OH2            14.1711512922       16.9515536235       -3.6667141586  W2        5415            0.0000000000
     16244      5415  TIP3      H1             14.5963812922       16.2443436235       -4.1517541586  W2        5415            0.0000000000
     16245      5415  TIP3      H2             14.4881512922       17.7528236235       -4.0834941586  W2        5415            0.0000000000
     16246      5416  TIP3      OH2            15.3308012922       14.8524036235       -5.1580541586  W2        5416            0.0000000000
     16247      5416  TIP3      H1             15.0732812922       14.1624136235       -5.7694641586  W2        5416            0.0000000000
     16248      5416  TIP3      H2             15.4018812922       14.4095236235       -4.3124641586  W2        5416            0.0000000000
     16249      5417  TIP3      OH2            17.0168212922       13.4190736235        3.3192958414  W2        5417            0.0000000000
     16250      5417  TIP3      H1             17.1564512922       12.8273236235        2.5799958414  W2        5417            0.0000000000
     16251      5417  TIP3      H2             17.1841012922       14.2916636235        2.9631758414  W2        5417            0.0000000000
     16252      5418  TIP3      OH2            11.4893612922       10.3810236235       -6.9081041586  W2        5418            0.0000000000
     16253      5418  TIP3      H1             10.7779112922       10.9159936235       -7.2600541586  W2        5418            0.0000000000
     16254      5418  TIP3      H2             12.1803212922       10.4362336235       -7.5682141586  W2        5418            0.0000000000
     16255      5419  TIP3      OH2            11.5432812922        8.8384536235       -9.8696041586  W2        5419            0.0000000000
     16256      5419  TIP3      H1             12.2442712922        8.8611436235       -9.2182041586  W2        5419            0.0000000000
     16257      5419  TIP3      H2             11.8455712922        8.2104236235      -10.5256741586  W2        5419            0.0000000000
     16258      5420  TIP3      OH2            18.8587512922        9.7588736235        1.3853358414  W2        5420            0.0000000000
     16259      5420  TIP3      H1             18.2061612922       10.4534336235        1.4744258414  W2        5420            0.0000000000
     16260      5420  TIP3      H2             19.3237812922        9.9689636235        0.5754958414  W2        5420            0.0000000000
     16261      5421  TIP3      OH2            14.8951312922       10.5903536235       -5.9565141586  W2        5421            0.0000000000
     16262      5421  TIP3      H1             14.1632312922       10.8187236235       -5.3834541586  W2        5421            0.0000000000
     16263      5421  TIP3      H2             15.3423512922        9.8766236235       -5.5017641586  W2        5421            0.0000000000
     16264      5422  TIP3      OH2            14.7924812922        8.7646136235        3.1111858414  W2        5422            0.0000000000
     16265      5422  TIP3      H1             14.8723912922        9.5280536235        3.6830358414  W2        5422            0.0000000000
     16266      5422  TIP3      H2             14.1912512922        9.0438536235        2.4206958414  W2        5422            0.0000000000
     16267      5423  TIP3      OH2             6.5405012922       11.2209736235       -4.0740141586  W2        5423            0.0000000000
     16268      5423  TIP3      H1              6.2100212922       10.8503136235       -4.8923141586  W2        5423            0.0000000000
     16269      5423  TIP3      H2              7.1289112922       10.5503736235       -3.7271841586  W2        5423            0.0000000000
     16270      5424  TIP3      OH2             7.9072512922       14.6490336235       -1.3927941586  W2        5424            0.0000000000
     16271      5424  TIP3      H1              7.8123812922       14.0703436235       -2.1493341586  W2        5424            0.0000000000
     16272      5424  TIP3      H2              8.6366112922       14.2776036235       -0.8965141586  W2        5424            0.0000000000
     16273      5425  TIP3      OH2             6.9070512922        9.9895336235       -0.4405141586  W2        5425            0.0000000000
     16274      5425  TIP3      H1              7.4723012922       10.1109536235       -1.2033941586  W2        5425            0.0000000000
     16275      5425  TIP3      H2              7.2259412922       10.6270336235        0.1983358414  W2        5425            0.0000000000
     16276      5426  TIP3      OH2            13.2162712922       15.4927236235        0.2935358414  W2        5426            0.0000000000
     16277      5426  TIP3      H1             12.9759312922       16.1550336235        0.9414558414  W2        5426            0.0000000000
     16278      5426  TIP3      H2             13.0180912922       14.6582436235        0.7184958414  W2        5426            0.0000000000
     16279      5427  TIP3      OH2             7.7871212922       14.3888036235        4.2766758414  W2        5427            0.0000000000
     16280      5427  TIP3      H1              7.4758712922       15.1711236235        4.7319958414  W2        5427            0.0000000000
     16281      5427  TIP3      H2              7.1371412922       14.2357136235        3.5908758414  W2        5427            0.0000000000
     16282      5428  TIP3      OH2            13.7660812922        9.7526436235       -8.2713941586  W2        5428            0.0000000000
     16283      5428  TIP3      H1             14.3456312922        9.9026736235       -7.5245041586  W2        5428            0.0000000000
     16284      5428  TIP3      H2             14.1800812922       10.2233836235       -8.9947541586  W2        5428            0.0000000000
     16285      5429  TIP3      OH2             4.7071112922       10.5869136235        3.5052458414  W2        5429            0.0000000000
     16286      5429  TIP3      H1              4.7774312922       11.2375936235        4.2037458414  W2        5429            0.0000000000
     16287      5429  TIP3      H2              3.8163312922       10.6896636235        3.1703358414  W2        5429            0.0000000000
     16288      5430  TIP3      OH2            11.4925712922       16.4894936235       -4.8360841586  W2        5430            0.0000000000
     16289      5430  TIP3      H1             11.9663312922       16.7851236235       -4.0586641586  W2        5430            0.0000000000
     16290      5430  TIP3      H2             10.9295012922       17.2276536235       -5.0691241586  W2        5430            0.0000000000
     16291      5431  TIP3      OH2             6.0267112922       16.4603036235        5.0400558414  W2        5431            0.0000000000
     16292      5431  TIP3      H1              6.0342412922       16.3242736235        4.0926058414  W2        5431            0.0000000000
     16293      5431  TIP3      H2              5.1107512922       16.3431136235        5.2920558414  W2        5431            0.0000000000
     16294      5432  TIP3      OH2            17.4649212922        1.5026836235       -8.4584241586  W2        5432            0.0000000000
     16295      5432  TIP3      H1             16.5649912922        1.6415836235       -8.1633641586  W2        5432            0.0000000000
     16296      5432  TIP3      H2             17.7167612922        2.3341436235       -8.8602541586  W2        5432            0.0000000000
     16297      5433  TIP3      OH2             5.5307712922       10.2904036235       -6.4847341586  W2        5433            0.0000000000
     16298      5433  TIP3      H1              5.2389012922       11.0585736235       -6.9756041586  W2        5433            0.0000000000
     16299      5433  TIP3      H2              4.8562912922        9.6310236235       -6.6475941586  W2        5433            0.0000000000
     16300      5434  TIP3      OH2            18.6540612922       15.8689236235      -10.0820341586  W2        5434            0.0000000000
     16301      5434  TIP3      H1             18.7274112922       16.8079436235       -9.9115041586  W2        5434            0.0000000000
     16302      5434  TIP3      H2             19.5595712922       15.5637836235      -10.1383041586  W2        5434            0.0000000000
     16303      5435  TIP3      OH2             1.6237812922       12.6533236235        2.3302458414  W2        5435            0.0000000000
     16304      5435  TIP3      H1              1.1226212922       12.6252636235        1.5152158414  W2        5435            0.0000000000
     16305      5435  TIP3      H2              1.6291512922       11.7476436235        2.6399758414  W2        5435            0.0000000000
     16306      5436  TIP3      OH2             1.3740512922       15.4337036235       -0.7857341586  W2        5436            0.0000000000
     16307      5436  TIP3      H1              2.3201112922       15.2894036235       -0.8047841586  W2        5436            0.0000000000
     16308      5436  TIP3      H2              1.2616812922       16.2179836235       -0.2486141586  W2        5436            0.0000000000
     16309      5437  TIP3      OH2            19.5719012922       16.0996736235        4.8966358414  W2        5437            0.0000000000
     16310      5437  TIP3      H1             19.5225812922       15.1444836235        4.8593958414  W2        5437            0.0000000000
     16311      5437  TIP3      H2             18.7451312922       16.3672036235        5.2980158414  W2        5437            0.0000000000
     16312      5438  TIP3      OH2            10.5503012922       15.6735936235        3.7727758414  W2        5438            0.0000000000
     16313      5438  TIP3      H1             10.6377612922       16.5000536235        4.2476858414  W2        5438            0.0000000000
     16314      5438  TIP3      H2              9.6868112922       15.3439736235        4.0217058414  W2        5438            0.0000000000
     16315      5439  TIP3      OH2            10.9648812922       19.4459636235       -6.4211641586  W2        5439            0.0000000000
     16316      5439  TIP3      H1             10.8894812922       19.3246836235       -7.3676441586  W2        5439            0.0000000000
     16317      5439  TIP3      H2             10.9977512922       20.3952336235       -6.3027041586  W2        5439            0.0000000000
     16318      5440  TIP3      OH2             4.6182612922       18.2346636235       -4.6402641586  W2        5440            0.0000000000
     16319      5440  TIP3      H1              4.7703012922       17.8867036235       -3.7616141586  W2        5440            0.0000000000
     16320      5440  TIP3      H2              3.7673012922       17.8783936235       -4.8955441586  W2        5440            0.0000000000
     16321      5441  TIP3      OH2            14.0664812922       18.5999836235       -9.4189241586  W2        5441            0.0000000000
     16322      5441  TIP3      H1             14.4413212922       17.8555936235       -9.8896641586  W2        5441            0.0000000000
     16323      5441  TIP3      H2             14.0708512922       18.3300436235       -8.5005941586  W2        5441            0.0000000000
     16324      5442  TIP3      OH2            13.7352912922       18.5256936235       -6.6697041586  W2        5442            0.0000000000
     16325      5442  TIP3      H1             12.8002712922       18.6258836235       -6.4910041586  W2        5442            0.0000000000
     16326      5442  TIP3      H2             14.0154812922       17.8162936235       -6.0913841586  W2        5442            0.0000000000
     16327      5443  TIP3      OH2            16.7238812922        7.5929236235        5.3768558414  W2        5443            0.0000000000
     16328      5443  TIP3      H1             16.3165612922        8.0734836235        4.6561858414  W2        5443            0.0000000000
     16329      5443  TIP3      H2             16.7644512922        6.6875236235        5.0689358414  W2        5443            0.0000000000
     16330      5444  TIP3      OH2             3.8728312922       13.9768636235        3.3735258414  W2        5444            0.0000000000
     16331      5444  TIP3      H1              4.0889612922       13.6154236235        4.2331058414  W2        5444            0.0000000000
     16332      5444  TIP3      H2              3.0173012922       13.6022436235        3.1638758414  W2        5444            0.0000000000
     16333      5445  TIP3      OH2             6.4916312922        2.4469136235       -0.6310541586  W2        5445            0.0000000000
     16334      5445  TIP3      H1              5.6300012922        2.3597336235       -1.0387641586  W2        5445            0.0000000000
     16335      5445  TIP3      H2              6.4692012922        3.3029236235       -0.2032941586  W2        5445            0.0000000000
     16336      5446  TIP3      OH2            11.1544112922        2.1689536235        2.7436458414  W2        5446            0.0000000000
     16337      5446  TIP3      H1             11.5747212922        1.7536636235        3.4967058414  W2        5446            0.0000000000
     16338      5446  TIP3      H2             10.2213712922        1.9902836235        2.8608458414  W2        5446            0.0000000000
     16339      5447  TIP3      OH2            14.4809012922        5.9244736235        3.5970958414  W2        5447            0.0000000000
     16340      5447  TIP3      H1             13.9668512922        5.7986936235        4.3946958414  W2        5447            0.0000000000
     16341      5447  TIP3      H2             14.3253712922        6.8367836235        3.3527158414  W2        5447            0.0000000000
     16342      5448  TIP3      OH2            15.2433912922       10.7854736235      -10.6416041586  W2        5448            0.0000000000
     16343      5448  TIP3      H1             15.2854712922       10.5628636235      -11.5716041586  W2        5448            0.0000000000
     16344      5448  TIP3      H2             16.0926012922       11.1841836235      -10.4516141586  W2        5448            0.0000000000
     16345      5449  TIP3      OH2            10.8161412922        4.6612936235       -9.9712741586  W2        5449            0.0000000000
     16346      5449  TIP3      H1             10.5626212922        4.6804536235       -9.0484641586  W2        5449            0.0000000000
     16347      5449  TIP3      H2             10.5593512922        3.7898336235      -10.2726541586  W2        5449            0.0000000000
     16348      5450  TIP3      OH2             6.5826412922        7.4123636235        0.4639658414  W2        5450            0.0000000000
     16349      5450  TIP3      H1              5.9408512922        7.3720936235        1.1729758414  W2        5450            0.0000000000
     16350      5450  TIP3      H2              6.6198412922        8.3388336235        0.2262658414  W2        5450            0.0000000000
     16351      5451  TIP3      OH2             6.5795512922        7.6333736235       -4.6240341586  W2        5451            0.0000000000
     16352      5451  TIP3      H1              5.6868412922        7.2929836235       -4.6826541586  W2        5451            0.0000000000
     16353      5451  TIP3      H2              7.0302112922        7.2564636235       -5.3797141586  W2        5451            0.0000000000
     16354      5452  TIP3      OH2            12.1151012922        8.0494036235       -5.8069541586  W2        5452            0.0000000000
     16355      5452  TIP3      H1             11.7061312922        8.8642636235       -6.0984741586  W2        5452            0.0000000000
     16356      5452  TIP3      H2             12.8357212922        7.9094136235       -6.4212441586  W2        5452            0.0000000000
     16357      5453  TIP3      OH2            11.2172612922        8.2250436235        5.6811158414  W2        5453            0.0000000000
     16358      5453  TIP3      H1             10.6546412922        7.5202036235        6.0018958414  W2        5453            0.0000000000
     16359      5453  TIP3      H2             12.0436012922        8.1042336235        6.1488758414  W2        5453            0.0000000000
     16360      5454  TIP3      OH2            13.1198712922        7.4954436235       -2.9929841586  W2        5454            0.0000000000
     16361      5454  TIP3      H1             12.9243212922        8.1011236235       -3.7079241586  W2        5454            0.0000000000
     16362      5454  TIP3      H2             13.3011312922        6.6619636235       -3.4273541586  W2        5454            0.0000000000
     16363      5455  TIP3      OH2             4.3326912922        7.7327136235        2.3311658414  W2        5455            0.0000000000
     16364      5455  TIP3      H1              4.2946312922        8.1328736235        3.1998758414  W2        5455            0.0000000000
     16365      5455  TIP3      H2              3.8418012922        6.9159536235        2.4214558414  W2        5455            0.0000000000
     16366      5456  TIP3      OH2             7.6984312922        5.1069436235      -10.8702341586  W2        5456            0.0000000000
     16367      5456  TIP3      H1              7.2675012922        4.6619536235      -10.1404941586  W2        5456            0.0000000000
     16368      5456  TIP3      H2              6.9803012922        5.4785736235      -11.3824841586  W2        5456            0.0000000000
     16369      5457  TIP3      OH2             0.9407712922        4.8488936235       -3.8183641586  W2        5457            0.0000000000
     16370      5457  TIP3      H1              1.5715412922        4.8201036235       -3.0989741586  W2        5457            0.0000000000
     16371      5457  TIP3      H2              1.3902012922        4.4237636235       -4.5487741586  W2        5457            0.0000000000
     16372      5458  TIP3      OH2             2.2149812922        5.5950936235       -8.3943241586  W2        5458            0.0000000000
     16373      5458  TIP3      H1              2.6891512922        6.1860836235       -8.9792341586  W2        5458            0.0000000000
     16374      5458  TIP3      H2              1.4976212922        6.1253836235       -8.0473141586  W2        5458            0.0000000000
     16375      5459  TIP3      OH2            12.3837912922        9.1335736235        1.6782558414  W2        5459            0.0000000000
     16376      5459  TIP3      H1             12.7072712922        8.5025436235        1.0353058414  W2        5459            0.0000000000
     16377      5459  TIP3      H2             11.9437212922        8.5987936235        2.3389958414  W2        5459            0.0000000000
     16378      5460  TIP3      OH2             9.1610812922        5.0611236235       -3.5376241586  W2        5460            0.0000000000
     16379      5460  TIP3      H1              8.2501912922        5.1178036235       -3.2490241586  W2        5460            0.0000000000
     16380      5460  TIP3      H2              9.6663712922        5.0006736235       -2.7269041586  W2        5460            0.0000000000
     16381      5461  TIP3      OH2             3.9894212922        6.6897536235       -4.7108641586  W2        5461            0.0000000000
     16382      5461  TIP3      H1              3.1002212922        6.7893036235       -5.0509041586  W2        5461            0.0000000000
     16383      5461  TIP3      H2              4.2859112922        5.8480536235       -5.0570741586  W2        5461            0.0000000000
     16384      5462  TIP3      OH2             7.6426012922        6.6900136235       -7.0544041586  W2        5462            0.0000000000
     16385      5462  TIP3      H1              8.5741512922        6.8190136235       -6.8760941586  W2        5462            0.0000000000
     16386      5462  TIP3      H2              7.4276312922        7.3594436235       -7.7039341586  W2        5462            0.0000000000
     16387      5463  TIP3      OH2            13.5662712922        4.2957536235       -0.2734441586  W2        5463            0.0000000000
     16388      5463  TIP3      H1             12.8894312922        4.4270636235        0.3905258414  W2        5463            0.0000000000
     16389      5463  TIP3      H2             13.0807612922        4.1407036235       -1.0836741586  W2        5463            0.0000000000
     16390      5464  TIP3      OH2             6.3166212922        7.8842336235       -9.4877941586  W2        5464            0.0000000000
     16391      5464  TIP3      H1              5.7741312922        7.5046136235      -10.1790341586  W2        5464            0.0000000000
     16392      5464  TIP3      H2              7.1501112922        8.0787036235       -9.9163841586  W2        5464            0.0000000000
     16393      5465  TIP3      OH2            16.8537812922       19.9672936235        6.0033158414  W2        5465            0.0000000000
     16394      5465  TIP3      H1             17.0536512922       20.3914836235        5.1688458414  W2        5465            0.0000000000
     16395      5465  TIP3      H2             17.5091512922       20.3111136235        6.6103558414  W2        5465            0.0000000000
     16396      5466  TIP3      OH2             4.4517612922       12.4414236235        5.6113658414  W2        5466            0.0000000000
     16397      5466  TIP3      H1              5.1840012922       12.6960136235        6.1728158414  W2        5466            0.0000000000
     16398      5466  TIP3      H2              3.6716312922       12.6459636235        6.1269058414  W2        5466            0.0000000000
     16399      5467  TIP3      OH2            10.4810512922        7.8484236235       -1.6506641586  W2        5467            0.0000000000
     16400      5467  TIP3      H1             11.0453912922        7.3020836235       -2.1977041586  W2        5467            0.0000000000
     16401      5467  TIP3      H2             10.3333912922        7.3266136235       -0.8619041586  W2        5467            0.0000000000
     16402      5468  TIP3      OH2             5.4830212922        3.9850336235       -5.2321841586  W2        5468            0.0000000000
     16403      5468  TIP3      H1              5.1659712922        3.0825636235       -5.2676441586  W2        5468            0.0000000000
     16404      5468  TIP3      H2              6.2644312922        3.9867736235       -5.7850241586  W2        5468            0.0000000000
     16405      5469  TIP3      OH2             9.1076412922        6.2370336235        0.7633758414  W2        5469            0.0000000000
     16406      5469  TIP3      H1              8.2721712922        6.6909836235        0.8736158414  W2        5469            0.0000000000
     16407      5469  TIP3      H2              9.6317012922        6.5128836235        1.5153658414  W2        5469            0.0000000000
     16408      5470  TIP3      OH2             9.6519012922       12.4498036235       -7.5519841586  W2        5470            0.0000000000
     16409      5470  TIP3      H1              8.9070012922       11.9423336235       -7.8741941586  W2        5470            0.0000000000
     16410      5470  TIP3      H2              9.5176212922       12.4986036235       -6.6055041586  W2        5470            0.0000000000
     16411      5471  TIP3      OH2            16.8017912922       11.5826236235        1.2347758414  W2        5471            0.0000000000
     16412      5471  TIP3      H1             17.4436712922       12.0392536235        0.6909958414  W2        5471            0.0000000000
     16413      5471  TIP3      H2             15.9714812922       11.6958636235        0.7721858414  W2        5471            0.0000000000
     16414      5472  TIP3      OH2            13.5495812922        5.2637936235       -9.3527241586  W2        5472            0.0000000000
     16415      5472  TIP3      H1             12.6110012922        5.3753536235       -9.5038441586  W2        5472            0.0000000000
     16416      5472  TIP3      H2             13.8467912922        6.1204836235       -9.0461541586  W2        5472            0.0000000000
     16417      5473  TIP3      OH2            11.1711112922       12.6341336235        3.6849258414  W2        5473            0.0000000000
     16418      5473  TIP3      H1             10.8257212922       12.2523736235        4.4918858414  W2        5473            0.0000000000
     16419      5473  TIP3      H2             10.9711212922       13.5674936235        3.7562158414  W2        5473            0.0000000000
     16420      5474  TIP3      OH2            14.2679312922        7.1310636235       -7.6919841586  W2        5474            0.0000000000
     16421      5474  TIP3      H1             15.1598312922        6.9935636235       -7.3728641586  W2        5474            0.0000000000
     16422      5474  TIP3      H2             14.3242912922        7.9216736235       -8.2286341586  W2        5474            0.0000000000
     16423      5475  TIP3      OH2             4.7767312922       11.7448036235       -1.7821941586  W2        5475            0.0000000000
     16424      5475  TIP3      H1              5.5214512922       11.7423736235       -2.3835441586  W2        5475            0.0000000000
     16425      5475  TIP3      H2              4.8543912922       10.9211836235       -1.3006841586  W2        5475            0.0000000000
     16426      5476  TIP3      OH2            11.7773112922       13.9082336235       -8.5265241586  W2        5476            0.0000000000
     16427      5476  TIP3      H1             11.4821512922       14.7350236235       -8.1450441586  W2        5476            0.0000000000
     16428      5476  TIP3      H2             11.0743112922       13.2889236235       -8.3303841586  W2        5476            0.0000000000
     16429      5477  TIP3      OH2             1.7847012922       10.2054936235        3.5326558414  W2        5477            0.0000000000
     16430      5477  TIP3      H1              2.0075612922        9.7874536235        4.3644058414  W2        5477            0.0000000000
     16431      5477  TIP3      H2              1.1827112922        9.5929936235        3.1099358414  W2        5477            0.0000000000
     16432      5478  TIP3      OH2             8.8011912922        9.7224836235        5.7456258414  W2        5478            0.0000000000
     16433      5478  TIP3      H1              8.5052712922        9.5567836235        4.8505358414  W2        5478            0.0000000000
     16434      5478  TIP3      H2              9.7327112922        9.5025136235        5.7350158414  W2        5478            0.0000000000
     16435      5479  TIP3      OH2            13.4214712922       15.0956836235        3.6354258414  W2        5479            0.0000000000
     16436      5479  TIP3      H1             12.5209012922       15.2789436235        3.3678158414  W2        5479            0.0000000000
     16437      5479  TIP3      H2             13.4555812922       15.3546136235        4.5563058414  W2        5479            0.0000000000
     16438      5480  TIP3      OH2            19.1528012922        7.3404736235       -7.9973141586  W2        5480            0.0000000000
     16439      5480  TIP3      H1             18.5984312922        6.9442736235       -8.6695641586  W2        5480            0.0000000000
     16440      5480  TIP3      H2             19.2531612922        8.2509936235       -8.2749841586  W2        5480            0.0000000000
     16441      5481  TIP3      OH2            19.1160012922       13.1406436235        4.8398358414  W2        5481            0.0000000000
     16442      5481  TIP3      H1             18.2648512922       13.3790236235        4.4724758414  W2        5481            0.0000000000
     16443      5481  TIP3      H2             19.7063412922       13.1239636235        4.0865458414  W2        5481            0.0000000000
     16444      5482  TIP3      OH2            17.4479712922       16.1265136235       -7.5321041586  W2        5482            0.0000000000
     16445      5482  TIP3      H1             17.0750812922       15.3008936235       -7.2230441586  W2        5482            0.0000000000
     16446      5482  TIP3      H2             17.7253212922       15.9434536235       -8.4297641586  W2        5482            0.0000000000
     16447      5483  TIP3      OH2            14.6083612922       10.9344636235       -0.5109141586  W2        5483            0.0000000000
     16448      5483  TIP3      H1             13.6800512922       10.7026536235       -0.5379841586  W2        5483            0.0000000000
     16449      5483  TIP3      H2             15.0594712922       10.1574436235       -0.8410341586  W2        5483            0.0000000000
     16450      5484  TIP3      OH2             7.1516712922       15.2626236235       -4.3780441586  W2        5484            0.0000000000
     16451      5484  TIP3      H1              7.6788912922       16.0360636235       -4.5781641586  W2        5484            0.0000000000
     16452      5484  TIP3      H2              6.2715212922       15.4875436235       -4.6796441586  W2        5484            0.0000000000
     16453      5485  TIP3      OH2             2.9064412922       10.1250336235       -9.7908041586  W2        5485            0.0000000000
     16454      5485  TIP3      H1              3.5224312922       10.7517536235       -9.4113241586  W2        5485            0.0000000000
     16455      5485  TIP3      H2              2.0447012922       10.4410136235       -9.5191541586  W2        5485            0.0000000000
     16456      5486  TIP3      OH2             8.5789012922       12.9256136235       -4.8016141586  W2        5486            0.0000000000
     16457      5486  TIP3      H1              8.3379012922       13.8510536235       -4.7600841586  W2        5486            0.0000000000
     16458      5486  TIP3      H2              7.8382612922       12.4667436235       -4.4052241586  W2        5486            0.0000000000
     16459      5487  TIP3      OH2             9.0935612922       17.0749736235        1.5134958414  W2        5487            0.0000000000
     16460      5487  TIP3      H1              9.4560312922       17.9295336235        1.2799358414  W2        5487            0.0000000000
     16461      5487  TIP3      H2              9.6250812922       16.7831336235        2.2541258414  W2        5487            0.0000000000
     16462      5488  TIP3      OH2             7.2619812922       17.9473736235       -5.2563941586  W2        5488            0.0000000000
     16463      5488  TIP3      H1              6.3120312922       18.0531136235       -5.2050641586  W2        5488            0.0000000000
     16464      5488  TIP3      H2              7.6137912922       18.7681136235       -4.9116441586  W2        5488            0.0000000000
     16465      5489  TIP3      OH2            12.6376412922       13.1740436235        1.2140558414  W2        5489            0.0000000000
     16466      5489  TIP3      H1             12.2117712922       12.9462136235        2.0404558414  W2        5489            0.0000000000
     16467      5489  TIP3      H2             13.2182212922       12.4352236235        1.0315858414  W2        5489            0.0000000000
     16468      5490  TIP3      OH2            14.8405312922       14.1030936235       -9.7120441586  W2        5490            0.0000000000
     16469      5490  TIP3      H1             15.1938412922       13.7230736235       -8.9076941586  W2        5490            0.0000000000
     16470      5490  TIP3      H2             13.8918812922       14.0095736235       -9.6251141586  W2        5490            0.0000000000
     16471      5491  TIP3      OH2            15.2960612922       17.7259936235        3.6835358414  W2        5491            0.0000000000
     16472      5491  TIP3      H1             14.6943812922       17.1702836235        3.1881658414  W2        5491            0.0000000000
     16473      5491  TIP3      H2             15.5774312922       18.3929736235        3.0572758414  W2        5491            0.0000000000
     16474      5492  TIP3      OH2            19.3439712922       18.5823436235       -9.5110241586  W2        5492            0.0000000000
     16475      5492  TIP3      H1             20.0877612922       19.1683936235       -9.6508641586  W2        5492            0.0000000000
     16476      5492  TIP3      H2             18.6497812922       19.1509236235       -9.1777841586  W2        5492            0.0000000000
     16477      5493  TIP3      OH2             3.4186512922        4.9587636235        3.0907958414  W2        5493            0.0000000000
     16478      5493  TIP3      H1              2.5258812922        5.2973036235        3.0231958414  W2        5493            0.0000000000
     16479      5493  TIP3      H2              3.3199312922        4.1033736235        3.5088758414  W2        5493            0.0000000000
     16480      5494  TIP3      OH2            15.7064612922       12.7752936235       -7.4852541586  W2        5494            0.0000000000
     16481      5494  TIP3      H1             15.4292212922       12.0472236235       -6.9291441586  W2        5494            0.0000000000
     16482      5494  TIP3      H2             16.6337612922       12.8944936235       -7.2799941586  W2        5494            0.0000000000
     16483      5495  TIP3      OH2             3.0698512922       16.7632036235        1.5257358414  W2        5495            0.0000000000
     16484      5495  TIP3      H1              3.2868812922       15.8314436235        1.4947058414  W2        5495            0.0000000000
     16485      5495  TIP3      H2              3.3162012922       17.0377036235        2.4090158414  W2        5495            0.0000000000
     16486      5496  TIP3      OH2             8.9313112922       15.2147036235      -11.2650441586  W2        5496            0.0000000000
     16487      5496  TIP3      H1              9.1702912922       14.4665136235      -11.8121541586  W2        5496            0.0000000000
     16488      5496  TIP3      H2              8.6624412922       14.8268736235      -10.4322641586  W2        5496            0.0000000000
     16489      5497  TIP3      OH2             7.8683712922       14.7850836235       -8.8087841586  W2        5497            0.0000000000
     16490      5497  TIP3      H1              8.0151712922       14.2650636235       -8.0186941586  W2        5497            0.0000000000
     16491      5497  TIP3      H2              7.8655412922       15.6918436235       -8.5021941586  W2        5497            0.0000000000
     16492      5498  TIP3      OH2             4.3214812922       12.0374136235       -8.2982441586  W2        5498            0.0000000000
     16493      5498  TIP3      H1              3.6354112922       12.3896636235       -7.7312741586  W2        5498            0.0000000000
     16494      5498  TIP3      H2              4.8442712922       12.8003736235       -8.5448141586  W2        5498            0.0000000000
     16495      5499  TIP3      OH2            12.1529912922        4.6997936235        1.9806558414  W2        5499            0.0000000000
     16496      5499  TIP3      H1             12.8517812922        4.7736636235        2.6306258414  W2        5499            0.0000000000
     16497      5499  TIP3      H2             11.7721312922        3.8352936235        2.1349458414  W2        5499            0.0000000000
     16498      5500  TIP3      OH2            12.9374812922        4.3519636235       -6.9221141586  W2        5500            0.0000000000
     16499      5500  TIP3      H1             13.1573112922        4.8235036235       -7.7255741586  W2        5500            0.0000000000
     16500      5500  TIP3      H2             13.4958812922        4.7462236235       -6.2520541586  W2        5500            0.0000000000
     16501      5501  TIP3      OH2            10.6060912922       16.4824436235       -8.0593641586  W2        5501            0.0000000000
     16502      5501  TIP3      H1              9.7897012922       16.9794136235       -8.0069341586  W2        5501            0.0000000000
     16503      5501  TIP3      H2             11.1357212922       16.9577936235       -8.6994841586  W2        5501            0.0000000000
     16504      5502  TIP3      OH2            10.1374712922        6.0798436235       -6.0872741586  W2        5502            0.0000000000
     16505      5502  TIP3      H1             10.9497312922        6.5841636235       -6.0411041586  W2        5502            0.0000000000
     16506      5502  TIP3      H2              9.8927712922        5.9348136235       -5.1733141586  W2        5502            0.0000000000
     16507      5503  TIP3      OH2            10.6731112922        7.0661136235        3.0973858414  W2        5503            0.0000000000
     16508      5503  TIP3      H1             10.7921412922        7.6396536235        3.8544258414  W2        5503            0.0000000000
     16509      5503  TIP3      H2             11.3285712922        6.3780536235        3.2121658414  W2        5503            0.0000000000
     16510      5504  TIP3      OH2            11.0211412922        3.1611436235       -5.1491641586  W2        5504            0.0000000000
     16511      5504  TIP3      H1             10.6744912922        3.7782036235       -4.5047341586  W2        5504            0.0000000000
     16512      5504  TIP3      H2             11.6798312922        3.6617136235       -5.6306141586  W2        5504            0.0000000000
     16513      5505  TIP3      OH2             7.9444012922       17.5261636235       -8.0776741586  W2        5505            0.0000000000
     16514      5505  TIP3      H1              8.1052712922       18.3259136235       -8.5784141586  W2        5505            0.0000000000
     16515      5505  TIP3      H2              7.7471812922       17.8327636235       -7.1926141586  W2        5505            0.0000000000
     16516      5506  TIP3      OH2             6.6788412922        4.2240836235       -8.4619141586  W2        5506            0.0000000000
     16517      5506  TIP3      H1              6.5953212922        5.1123936235       -8.1152741586  W2        5506            0.0000000000
     16518      5506  TIP3      H2              7.5688712922        3.9587536235       -8.2302341586  W2        5506            0.0000000000
     16519      5507  TIP3      OH2            16.8776912922        4.9731436235        3.9323558414  W2        5507            0.0000000000
     16520      5507  TIP3      H1             15.9612712922        5.2353136235        3.8447258414  W2        5507            0.0000000000
     16521      5507  TIP3      H2             17.2131912922        4.9700436235        3.0358858414  W2        5507            0.0000000000
     16522      5508  TIP3      OH2            15.4797912922        8.7232436235       -1.9719141586  W2        5508            0.0000000000
     16523      5508  TIP3      H1             14.6822312922        8.3082636235       -2.3004141586  W2        5508            0.0000000000
     16524      5508  TIP3      H2             15.9249012922        8.0326136235       -1.4808641586  W2        5508            0.0000000000
     16525      5509  TIP3      OH2             4.9373712922       14.6513036235       -9.4014641586  W2        5509            0.0000000000
     16526      5509  TIP3      H1              5.5295212922       15.3507836235       -9.1252241586  W2        5509            0.0000000000
     16527      5509  TIP3      H2              5.3966712922       14.2182536235      -10.1210041586  W2        5509            0.0000000000
     16528      5510  TIP3      OH2             3.2532912922        7.3156036235      -10.2855241586  W2        5510            0.0000000000
     16529      5510  TIP3      H1              3.2085512922        8.2549136235      -10.1068241586  W2        5510            0.0000000000
     16530      5510  TIP3      H2              2.3656112922        7.0800936235      -10.5553141586  W2        5510            0.0000000000
     16531      5511  TIP3      OH2            16.5662512922       17.9794936235       -0.3495641586  W2        5511            0.0000000000
     16532      5511  TIP3      H1             16.4106812922       18.6579336235       -1.0066341586  W2        5511            0.0000000000
     16533      5511  TIP3      H2             17.4988912922       18.0514236235       -0.1465041586  W2        5511            0.0000000000
     16534      5512  TIP3      OH2             4.0614912922        2.0972636235       -1.6124241586  W2        5512            0.0000000000
     16535      5512  TIP3      H1              3.8324712922        2.1565136235       -2.5399241586  W2        5512            0.0000000000
     16536      5512  TIP3      H2              3.6188312922        1.3058136235       -1.3060141586  W2        5512            0.0000000000
     16537      5513  TIP3      OH2             2.9918212922       16.0379736235       -5.4518441586  W2        5513            0.0000000000
     16538      5513  TIP3      H1              2.1596812922       16.5102436235       -5.4247041586  W2        5513            0.0000000000
     16539      5513  TIP3      H2              3.5376512922       16.5477336235       -6.0505341586  W2        5513            0.0000000000
     16540      5514  TIP3      OH2             2.2801912922       18.6503436235        5.8779558414  W2        5514            0.0000000000
     16541      5514  TIP3      H1              2.8204112922       18.4337436235        6.6378758414  W2        5514            0.0000000000
     16542      5514  TIP3      H2              1.7989912922       17.8449436235        5.6882058414  W2        5514            0.0000000000
     16543      5515  TIP3      OH2             6.8775312922       17.5697836235        7.4983758414  W2        5515            0.0000000000
     16544      5515  TIP3      H1              7.6452512922       17.1108636235        7.8392958414  W2        5515            0.0000000000
     16545      5515  TIP3      H2              6.8561512922       17.3437636235        6.5684958414  W2        5515            0.0000000000
     16546      5516  TIP3      OH2            10.9694912922       17.0778436235      -11.1264441586  W2        5516            0.0000000000
     16547      5516  TIP3      H1             10.3255912922       16.4467036235      -10.8050741586  W2        5516            0.0000000000
     16548      5516  TIP3      H2             11.7313212922       16.5466436235      -11.3580941586  W2        5516            0.0000000000
     16549      5517  TIP3      OH2            13.4544012922       15.9498936235        6.2275258414  W2        5517            0.0000000000
     16550      5517  TIP3      H1             13.1033512922       15.0931936235        6.4705658414  W2        5517            0.0000000000
     16551      5517  TIP3      H2             14.1807212922       16.0925636235        6.8344258414  W2        5517            0.0000000000
     16552      5518  TIP3      OH2            15.5737812922       16.8948336235      -10.8926441586  W2        5518            0.0000000000
     16553      5518  TIP3      H1             15.8568212922       16.1003536235      -10.4399541586  W2        5518            0.0000000000
     16554      5518  TIP3      H2             16.3135712922       17.1279336235      -11.4535341586  W2        5518            0.0000000000
     16555      5519  TIP3      OH2             2.1871412922       12.4607536235        6.8323858414  W2        5519            0.0000000000
     16556      5519  TIP3      H1              2.3311912922       11.5588236235        6.5460558414  W2        5519            0.0000000000
     16557      5519  TIP3      H2              1.4148812922       12.7469636235        6.3446158414  W2        5519            0.0000000000
     16558      5520  TIP3      OH2             6.5285112922       12.8043236235      -11.0351541586  W2        5520            0.0000000000
     16559      5520  TIP3      H1              6.5929212922       12.0102836235      -10.5045141586  W2        5520            0.0000000000
     16560      5520  TIP3      H2              7.1814312922       12.6856036235      -11.7249541586  W2        5520            0.0000000000
     16561      5521  TIP3      OH2             8.8427512922       12.4305636235        6.2650258414  W2        5521            0.0000000000
     16562      5521  TIP3      H1              8.5141312922       12.7013736235        5.4077658414  W2        5521            0.0000000000
     16563      5521  TIP3      H2              8.9945712922       11.4895436235        6.1775258414  W2        5521            0.0000000000
     16564      5522  TIP3      OH2            11.8808512922       13.8514936235      -11.2993541586  W2        5522            0.0000000000
     16565      5522  TIP3      H1             11.6122612922       14.0317036235      -10.3984641586  W2        5522            0.0000000000
     16566      5522  TIP3      H2             11.6744112922       12.9261136235      -11.4307741586  W2        5522            0.0000000000
     16567      5523  TIP3      OH2            14.5772712922       12.3462936235        3.6482558414  W2        5523            0.0000000000
     16568      5523  TIP3      H1             15.3227512922       12.9346636235        3.5286558414  W2        5523            0.0000000000
     16569      5523  TIP3      H2             13.8199512922       12.9282636235        3.7115658414  W2        5523            0.0000000000
     16570      5524  TIP3      OH2             3.0197912922        9.6610836235        6.2523158414  W2        5524            0.0000000000
     16571      5524  TIP3      H1              3.4279112922        8.8037436235        6.1313758414  W2        5524            0.0000000000
     16572      5524  TIP3      H2              2.7595512922        9.6752136235        7.1733458414  W2        5524            0.0000000000
     16573      5525  TIP3      OH2             7.6778912922       10.7769436235       -8.7293541586  W2        5525            0.0000000000
     16574      5525  TIP3      H1              7.2180912922       10.2927736235       -8.0435041586  W2        5525            0.0000000000
     16575      5525  TIP3      H2              7.9327612922       10.1084836235       -9.3653041586  W2        5525            0.0000000000
     16576      5526  TIP3      OH2             6.9668212922        8.6696536235        3.6266058414  W2        5526            0.0000000000
     16577      5526  TIP3      H1              6.3484312922        9.3443136235        3.9070758414  W2        5526            0.0000000000
     16578      5526  TIP3      H2              7.3109412922        8.9910436235        2.7932258414  W2        5526            0.0000000000
     16579      5527  TIP3      OH2             8.7489312922        9.0201236235      -10.4670341586  W2        5527            0.0000000000
     16580      5527  TIP3      H1              8.5684312922        8.8652436235      -11.3942041586  W2        5527            0.0000000000
     16581      5527  TIP3      H2              9.6989812922        9.1279936235      -10.4222441586  W2        5527            0.0000000000
     16582      5528  TIP3      OH2            11.9866412922       11.1411836235        6.9040858414  W2        5528            0.0000000000
     16583      5528  TIP3      H1             12.9397612922       11.2250936235        6.8766858414  W2        5528            0.0000000000
     16584      5528  TIP3      H2             11.8261012922       10.4293636235        7.5235758414  W2        5528            0.0000000000
     16585      5529  TIP3      OH2            18.1387612922       11.3745436235      -11.0212241586  W2        5529            0.0000000000
     16586      5529  TIP3      H1             17.8652412922       10.9500936235      -11.8343941586  W2        5529            0.0000000000
     16587      5529  TIP3      H2             18.1781712922       12.3059936235      -11.2381841586  W2        5529            0.0000000000
     16588      5530  TIP3      OH2             7.3061912922        6.0247336235        4.7089158414  W2        5530            0.0000000000
     16589      5530  TIP3      H1              7.4562812922        5.2958636235        4.1068858414  W2        5530            0.0000000000
     16590      5530  TIP3      H2              7.3084312922        6.8019036235        4.1501358414  W2        5530            0.0000000000
     16591      5531  TIP3      OH2             7.7187612922        4.3943136235        2.2016558414  W2        5531            0.0000000000
     16592      5531  TIP3      H1              8.2545112922        4.8459836235        1.5495858414  W2        5531            0.0000000000
     16593      5531  TIP3      H2              6.8667212922        4.2862936235        1.7790658414  W2        5531            0.0000000000
     16594      5532  TIP3      OH2             9.3006012922        9.8339336235        2.4411758414  W2        5532            0.0000000000
     16595      5532  TIP3      H1             10.0510812922        9.6776836235        1.8679558414  W2        5532            0.0000000000
     16596      5532  TIP3      H2              8.9614312922       10.6855936235        2.1657258414  W2        5532            0.0000000000
     16597      5533  TIP3      OH2            13.7162212922        7.6491136235        7.4697058414  W2        5533            0.0000000000
     16598      5533  TIP3      H1             13.9083512922        6.7180536235        7.3581558414  W2        5533            0.0000000000
     16599      5533  TIP3      H2             14.5738512922        8.0740636235        7.4592458414  W2        5533            0.0000000000
     16600      5534  TIP3      OH2            15.0329412922       10.4376336235        5.5469758414  W2        5534            0.0000000000
     16601      5534  TIP3      H1             14.7514412922       11.1470936235        4.9693558414  W2        5534            0.0000000000
     16602      5534  TIP3      H2             15.9753712922       10.3649336235        5.3960958414  W2        5534            0.0000000000
     16603      5535  TIP3      OH2             5.7848212922        7.2230836235        6.6204758414  W2        5535            0.0000000000
     16604      5535  TIP3      H1              5.0177212922        6.6905636235        6.4102358414  W2        5535            0.0000000000
     16605      5535  TIP3      H2              6.4637212922        6.9131236235        6.0211058414  W2        5535            0.0000000000
     16606      5536  TIP3      OH2             8.5243112922        1.8508836235        2.6330158414  W2        5536            0.0000000000
     16607      5536  TIP3      H1              8.4262712922        2.7972036235        2.5276358414  W2        5536            0.0000000000
     16608      5536  TIP3      H2              7.7819312922        1.4782636235        2.1573658414  W2        5536            0.0000000000
     16609      5537  TIP3      OH2             9.7883612922        6.1724236235        6.1968558414  W2        5537            0.0000000000
     16610      5537  TIP3      H1              9.5529012922        5.9530936235        7.0983458414  W2        5537            0.0000000000
     16611      5537  TIP3      H2              9.0050512922        5.9655436235        5.6871058414  W2        5537            0.0000000000
     16612      5538  TIP3      OH2            12.5040212922        5.2997736235        5.2722058414  W2        5538            0.0000000000
     16613      5538  TIP3      H1             11.5565612922        5.3317436235        5.4045358414  W2        5538            0.0000000000
     16614      5538  TIP3      H2             12.8166912922        4.6744836235        5.9260258414  W2        5538            0.0000000000
     16615      5539  TIP3      OH2            14.1381712922        3.9338836235        7.2773958414  W2        5539            0.0000000000
     16616      5539  TIP3      H1             14.0413512922        2.9816136235        7.2715858414  W2        5539            0.0000000000
     16617      5539  TIP3      H2             13.8164812922        4.2025636235        8.1379458414  W2        5539            0.0000000000
     16618      5540  TIP3      OH2             3.9651012922        5.1434636235        6.3249458414  W2        5540            0.0000000000
     16619      5540  TIP3      H1              4.1768412922        4.4370736235        5.7146958414  W2        5540            0.0000000000
     16620      5540  TIP3      H2              3.8538512922        4.7060636235        7.1690658414  W2        5540            0.0000000000
     16621      5541  TIP3      OH2             8.7461212922        1.1446236235        5.3042958414  W2        5541            0.0000000000
     16622      5541  TIP3      H1              9.4579612922        0.5048436235        5.2902058414  W2        5541            0.0000000000
     16623      5541  TIP3      H2              8.6451612922        1.4114536235        4.3906058414  W2        5541            0.0000000000
     16624      5542  TIP3      OH2             9.0998712922        2.8274636235        7.3579258414  W2        5542            0.0000000000
     16625      5542  TIP3      H1              8.9680912922        2.3518436235        6.5377758414  W2        5542            0.0000000000
     16626      5542  TIP3      H2              8.5006112922        3.5718236235        7.3026358414  W2        5542            0.0000000000
     16627      5543  TIP3      OH2             8.6461012922       19.7104936235       -9.4656741586  W2        5543            0.0000000000
     16628      5543  TIP3      H1              9.5791712922       19.8683636235       -9.3218341586  W2        5543            0.0000000000
     16629      5543  TIP3      H2              8.3819812922       20.3857936235      -10.0905241586  W2        5543            0.0000000000
     16630      5544  TIP3      OH2             2.2145912922       14.3468736235       -9.9828641586  W2        5544            0.0000000000
     16631      5544  TIP3      H1              3.1285112922       14.4257636235       -9.7094741586  W2        5544            0.0000000000
     16632      5544  TIP3      H2              2.2219012922       13.6598336235      -10.6493041586  W2        5544            0.0000000000
     16633      5545  TIP3      OH2             0.8636512922       19.7397236235       -4.9054741586  W2        5545            0.0000000000
     16634      5545  TIP3      H1              0.2163612922       19.2778936235       -5.4383541586  W2        5545            0.0000000000
     16635      5545  TIP3      H2              1.2181112922       19.0680536235       -4.3228541586  W2        5545            0.0000000000
     16636      5546  TIP3      OH2             1.7335712922       17.8204236235       -3.1008541586  W2        5546            0.0000000000
     16637      5546  TIP3      H1              1.3992512922       16.9401536235       -2.9288341586  W2        5546            0.0000000000
     16638      5546  TIP3      H2              1.9558112922       18.1659236235       -2.2362941586  W2        5546            0.0000000000
     16639      5547  TIP3      OH2            19.2820512922       18.6300636235       -0.1203741586  W2        5547            0.0000000000
     16640      5547  TIP3      H1             19.2607212922       18.8149036235        0.8185658414  W2        5547            0.0000000000
     16641      5547  TIP3      H2             19.9726712922       19.1984636235       -0.4612341586  W2        5547            0.0000000000
     16642      5548  TIP3      OH2            18.8453412922       18.1971736235        2.8015358414  W2        5548            0.0000000000
     16643      5548  TIP3      H1             18.3582112922       17.4615836235        2.4302758414  W2        5548            0.0000000000
     16644      5548  TIP3      H2             19.3946112922       17.8035636235        3.4794758414  W2        5548            0.0000000000
     16645      5549  TIP3      OH2            17.2960712922       13.9869836235        7.4395658414  W2        5549            0.0000000000
     16646      5549  TIP3      H1             16.4301812922       13.8819536235        7.8337958414  W2        5549            0.0000000000
     16647      5549  TIP3      H2             17.6726612922       14.7453136235        7.8860358414  W2        5549            0.0000000000
     16648      5550  TIP3      OH2            18.5970412922       12.2433536235       -7.0461841586  W2        5550            0.0000000000
     16649      5550  TIP3      H1             19.4471812922       12.6644436235       -6.9190241586  W2        5550            0.0000000000
     16650      5550  TIP3      H2             18.6025512922       11.5033636235       -6.4390441586  W2        5550            0.0000000000
     16651      5551  TIP3      OH2            18.9916012922       10.2970936235       -5.2226141586  W2        5551            0.0000000000
     16652      5551  TIP3      H1             18.2650612922        9.8173536235       -4.8248541586  W2        5551            0.0000000000
     16653      5551  TIP3      H2             19.5729312922       10.5025636235       -4.4904541586  W2        5551            0.0000000000
     16654      5552  TIP3      OH2            18.7507212922       13.0818436235       -0.2748541586  W2        5552            0.0000000000
     16655      5552  TIP3      H1             19.5841412922       12.7038436235       -0.5554941586  W2        5552            0.0000000000
     16656      5552  TIP3      H2             18.8627512922       14.0249636235       -0.3939441586  W2        5552            0.0000000000
     16657      5553  TIP3      OH2            17.2369512922       15.9595936235        2.0319858414  W2        5553            0.0000000000
     16658      5553  TIP3      H1             16.5894812922       16.2847436235        2.6575058414  W2        5553            0.0000000000
     16659      5553  TIP3      H2             16.7193512922       15.5193636235        1.3578158414  W2        5553            0.0000000000
     16660      5554  TIP3      OH2            19.2599112922       10.1979436235       -8.8314841586  W2        5554            0.0000000000
     16661      5554  TIP3      H1             18.7380212922       10.5543536235       -9.5503941586  W2        5554            0.0000000000
     16662      5554  TIP3      H2             19.2268312922       10.8727236235       -8.1533941586  W2        5554            0.0000000000
     16663      5555  TIP3      OH2            17.6088112922        7.4375036235      -10.2807741586  W2        5555            0.0000000000
     16664      5555  TIP3      H1             17.7052512922        8.1042036235      -10.9608041586  W2        5555            0.0000000000
     16665      5555  TIP3      H2             17.4687712922        6.6221336235      -10.7622241586  W2        5555            0.0000000000
     16666      5556  TIP3      OH2            16.7782812922        8.8177436235       -4.6597441586  W2        5556            0.0000000000
     16667      5556  TIP3      H1             16.6281612922        7.8726036235       -4.6799641586  W2        5556            0.0000000000
     16668      5556  TIP3      H2             16.4247312922        9.0988836235       -3.8158341586  W2        5556            0.0000000000
     16669      5557  TIP3      OH2             1.8135212922       10.8959636235       -0.6493641586  W2        5557            0.0000000000
     16670      5557  TIP3      H1              1.9978112922       10.8141336235       -1.5850741586  W2        5557            0.0000000000
     16671      5557  TIP3      H2              2.6628112922       10.7716636235       -0.2257241586  W2        5557            0.0000000000
     16672      5558  TIP3      OH2            17.6345712922       10.7880736235        4.9790858414  W2        5558            0.0000000000
     16673      5558  TIP3      H1             18.2173012922       10.0533036235        5.1708058414  W2        5558            0.0000000000
     16674      5558  TIP3      H2             18.1985012922       11.5601036235        5.0256658414  W2        5558            0.0000000000
     16675      5559  TIP3      OH2            19.1312812922        8.6906536235        5.6636258414  W2        5559            0.0000000000
     16676      5559  TIP3      H1             18.2679512922        8.3118636235        5.4980958414  W2        5559            0.0000000000
     16677      5559  TIP3      H2             19.7356512922        7.9521336235        5.5892058414  W2        5559            0.0000000000
     16678      5560  TIP3      OH2            16.8561912922        4.8454836235      -11.1632241586  W2        5560            0.0000000000
     16679      5560  TIP3      H1             17.4667712922        4.4741636235      -10.5264041586  W2        5560            0.0000000000
     16680      5560  TIP3      H2             16.0193412922        4.4241736235      -10.9672241586  W2        5560            0.0000000000
     16681      5561  TIP3      OH2            16.4887612922        6.4003236235       -6.1972341586  W2        5561            0.0000000000
     16682      5561  TIP3      H1             16.7684712922        5.4933636235       -6.0730641586  W2        5561            0.0000000000
     16683      5561  TIP3      H2             17.2479312922        6.8344736235       -6.5863141586  W2        5561            0.0000000000
     16684      5562  TIP3      OH2            17.1005912922        6.9820636235       -0.7613441586  W2        5562            0.0000000000
     16685      5562  TIP3      H1             18.0333912922        7.1940536235       -0.7957441586  W2        5562            0.0000000000
     16686      5562  TIP3      H2             16.8653412922        7.0832736235        0.1609558414  W2        5562            0.0000000000
     16687      5563  TIP3      OH2            17.1297812922        7.7185936235        2.0145958414  W2        5563            0.0000000000
     16688      5563  TIP3      H1             16.2869112922        7.9866336235        2.3805758414  W2        5563            0.0000000000
     16689      5563  TIP3      H2             17.5722112922        8.5407836235        1.8037058414  W2        5563            0.0000000000
     16690      5564  TIP3      OH2             1.4110012922        6.1664636235        5.4915158414  W2        5564            0.0000000000
     16691      5564  TIP3      H1              2.3304912922        6.0442936235        5.7278258414  W2        5564            0.0000000000
     16692      5564  TIP3      H2              0.9614512922        5.4164336235        5.8808658414  W2        5564            0.0000000000
     16693      5565  TIP3      OH2            19.4129412922        1.6986136235        7.3680958414  W2        5565            0.0000000000
     16694      5565  TIP3      H1             19.7626412922        1.0449636235        6.7625658414  W2        5565            0.0000000000
     16695      5565  TIP3      H2             19.5598912922        2.5360236235        6.9283558414  W2        5565            0.0000000000
     16696      5566  TIP3      OH2            17.1022412922        3.6632536235       -6.1490341586  W2        5566            0.0000000000
     16697      5566  TIP3      H1             17.2847412922        3.2144036235       -5.3235341586  W2        5566            0.0000000000
     16698      5566  TIP3      H2             16.5025312922        3.0786936235       -6.6125741586  W2        5566            0.0000000000
     16699      5567  TIP3      OH2             2.6322512922        4.4786236235       -1.6171941586  W2        5567            0.0000000000
     16700      5567  TIP3      H1              3.0774112922        3.6868736235       -1.3152241586  W2        5567            0.0000000000
     16701      5567  TIP3      H2              3.0985512922        5.1951436235       -1.1866341586  W2        5567            0.0000000000
     16702      5568  TIP3      OH2             0.9362812922        7.4779236235       -0.5481741586  W2        5568            0.0000000000
     16703      5568  TIP3      H1              1.4282612922        7.2569736235       -1.3389741586  W2        5568            0.0000000000
     16704      5568  TIP3      H2              1.2983712922        8.3182636235       -0.2672241586  W2        5568            0.0000000000
     16705      5569  TIP3      OH2            18.9326612922        3.8080736235        5.7172258414  W2        5569            0.0000000000
     16706      5569  TIP3      H1             18.0152312922        4.0787836235        5.6815758414  W2        5569            0.0000000000
     16707      5569  TIP3      H2             19.0556012922        3.2729136235        4.9331958414  W2        5569            0.0000000000
     16708      5570  TIP3      OH2            18.9688612922        3.7310636235       -9.6210041586  W2        5570            0.0000000000
     16709      5570  TIP3      H1             19.3811212922        3.0096336235      -10.0962041586  W2        5570            0.0000000000
     16710      5570  TIP3      H2             19.6505112922        4.4005236235       -9.5625741586  W2        5570            0.0000000000
     16711      5571  TIP3      OH2             1.2499312922        3.7358336235       -6.4939341586  W2        5571            0.0000000000
     16712      5571  TIP3      H1              0.3247712922        3.9444936235       -6.6233841586  W2        5571            0.0000000000
     16713      5571  TIP3      H2              1.7039212922        4.2199136235       -7.1837041586  W2        5571            0.0000000000
     16714      5572  TIP3      OH2            16.0206512922       18.7200036235       -4.5481941586  W2        5572            0.0000000000
     16715      5572  TIP3      H1             16.6729412922       18.3722136235       -5.1562841586  W2        5572            0.0000000000
     16716      5572  TIP3      H2             16.5310312922       19.2083236235       -3.9022241586  W2        5572            0.0000000000
     16717      5573  TIP3      OH2             1.2134712922        2.4737336235        1.8503158414  W2        5573            0.0000000000
     16718      5573  TIP3      H1              0.5485212922        2.2277636235        2.4934058414  W2        5573            0.0000000000
     16719      5573  TIP3      H2              0.7706012922        3.0957736235        1.2731158414  W2        5573            0.0000000000
     16720      5574  TIP3      OH2             3.4054012922       15.6491436235        5.9948958414  W2        5574            0.0000000000
     16721      5574  TIP3      H1              2.5846512922       15.8237936235        5.5343658414  W2        5574            0.0000000000
     16722      5574  TIP3      H2              3.1531812922       15.5756136235        6.9153358414  W2        5574            0.0000000000
     16723      5575  TIP3      OH2             6.3596912922       16.6232636235        2.2532958414  W2        5575            0.0000000000
     16724      5575  TIP3      H1              5.9348012922       17.4331136235        1.9707558414  W2        5575            0.0000000000
     16725      5575  TIP3      H2              7.2639712922       16.7086736235        1.9512758414  W2        5575            0.0000000000
     16726      5576  TIP3      OH2            10.6708312922       18.0222636235        5.2126658414  W2        5576            0.0000000000
     16727      5576  TIP3      H1             10.8555812922       17.6888736235        6.0906958414  W2        5576            0.0000000000
     16728      5576  TIP3      H2             11.5172812922       18.3321236235        4.8905858414  W2        5576            0.0000000000
     16729      5577  TIP3      OH2            13.0158712922       19.3081536235        4.4568058414  W2        5577            0.0000000000
     16730      5577  TIP3      H1             13.6927612922       18.6753836235        4.2167258414  W2        5577            0.0000000000
     16731      5577  TIP3      H2             13.3377512922       19.7092036235        5.2641358414  W2        5577            0.0000000000
     16732      5578  TIP3      OH2            17.9332512922        1.8977036235        3.5363058414  W2        5578            0.0000000000
     16733      5578  TIP3      H1             17.1206012922        2.2227336235        3.1487758414  W2        5578            0.0000000000
     16734      5578  TIP3      H2             18.1661012922        1.1375536235        3.0032158414  W2        5578            0.0000000000
     16735      5579  TIP3      OH2             3.7613612922       19.8796536235        2.3008258414  W2        5579            0.0000000000
     16736      5579  TIP3      H1              3.0410012922       20.3197536235        1.8495958414  W2        5579            0.0000000000
     16737      5579  TIP3      H2              3.3957612922       19.6291236235        3.1492258414  W2        5579            0.0000000000
     16738      5580  TIP3      OH2             6.2286212922       19.4800436235        1.3305458414  W2        5580            0.0000000000
     16739      5580  TIP3      H1              5.3638412922       19.5518936235        1.7345558414  W2        5580            0.0000000000
     16740      5580  TIP3      H2              6.1735212922       20.0267736235        0.5467958414  W2        5580            0.0000000000
     16741      5581  TIP3      OH2            10.9391812922       19.3679336235        0.5061458414  W2        5581            0.0000000000
     16742      5581  TIP3      H1             10.4825812922       19.8969036235       -0.1480141586  W2        5581            0.0000000000
     16743      5581  TIP3      H2             11.1019812922       19.9710736235        1.2313758414  W2        5581            0.0000000000
     16744      5582  TIP3      OH2            13.2668112922       18.2458936235        1.4511758414  W2        5582            0.0000000000
     16745      5582  TIP3      H1             12.3621812922       18.4109136235        1.1853858414  W2        5582            0.0000000000
     16746      5582  TIP3      H2             13.6956712922       19.0991136235        1.3855158414  W2        5582            0.0000000000
     16747      5583  TIP3      OH2            15.8710012922       19.8158036235        1.7459558414  W2        5583            0.0000000000
     16748      5583  TIP3      H1             15.6892012922       20.7316936235        1.5354458414  W2        5583            0.0000000000
     16749      5583  TIP3      H2             16.0477812922       19.4055136235        0.8994158414  W2        5583            0.0000000000
     16750      5584  TIP3      OH2             3.1761712922       18.5029036235       -0.7889941586  W2        5584            0.0000000000
     16751      5584  TIP3      H1              3.1577712922       18.0774136235        0.0682358414  W2        5584            0.0000000000
     16752      5584  TIP3      H2              3.9809612922       18.1844036235       -1.1977741586  W2        5584            0.0000000000
     16753      5585  TIP3      OH2             5.3174812922       17.2127736235       -2.1340041586  W2        5585            0.0000000000
     16754      5585  TIP3      H1              5.0985512922       16.2965136235       -1.9644041586  W2        5585            0.0000000000
     16755      5585  TIP3      H2              6.1417012922       17.3528136235       -1.6678641586  W2        5585            0.0000000000
     16756      5586  TIP3      OH2             7.8547312922       17.6827036235       -1.2852041586  W2        5586            0.0000000000
     16757      5586  TIP3      H1              8.0673012922       16.7946036235       -1.5721141586  W2        5586            0.0000000000
     16758      5586  TIP3      H2              7.9192412922       17.6484736235       -0.3308041586  W2        5586            0.0000000000
     16759      5587  TIP3      OH2            11.3631012922        3.3467636235       -2.1408741586  W2        5587            0.0000000000
     16760      5587  TIP3      H1             10.6887812922        2.7173236235       -1.8852941586  W2        5587            0.0000000000
     16761      5587  TIP3      H2             11.9270212922        2.8626536235       -2.7440841586  W2        5587            0.0000000000
     16762      5588  TIP3      OH2            16.5058212922        1.4541636235       -2.0281641586  W2        5588            0.0000000000
     16763      5588  TIP3      H1             17.1095812922        2.0017036235       -2.5300641586  W2        5588            0.0000000000
     16764      5588  TIP3      H2             15.6360212922        1.7732036235       -2.2687541586  W2        5588            0.0000000000
     16765      5589  TIP3      OH2            18.2328612922        2.5930336235       -3.6950741586  W2        5589            0.0000000000
     16766      5589  TIP3      H1             18.8446112922        2.0786036235       -4.2217141586  W2        5589            0.0000000000
     16767      5589  TIP3      H2             18.6152012922        3.4702436235       -3.6716341586  W2        5589            0.0000000000
     16768      5590  TIP3      OH2             3.6898512922        1.9807936235       -4.3188841586  W2        5590            0.0000000000
     16769      5590  TIP3      H1              2.9128312922        1.7462836235       -4.8262941586  W2        5590            0.0000000000
     16770      5590  TIP3      H2              4.2202112922        1.1840036235       -4.3100841586  W2        5590            0.0000000000
     16771      5591  TIP3      OH2             2.5261912922        1.7786036235       -8.5152741586  W2        5591            0.0000000000
     16772      5591  TIP3      H1              2.9652612922        2.3896536235       -9.1069241586  W2        5591            0.0000000000
     16773      5591  TIP3      H2              1.8924312922        2.3170136235       -8.0412741586  W2        5591            0.0000000000
     16774      5592  TIP3      OH2             8.2691112922        1.9075036235       -4.5055741586  W2        5592            0.0000000000
     16775      5592  TIP3      H1              9.1434512922        2.2959336235       -4.5351441586  W2        5592            0.0000000000
     16776      5592  TIP3      H2              8.1331912922        1.6922836235       -3.5828541586  W2        5592            0.0000000000
     16777      5593  TIP3      OH2            13.8259512922        1.9374836235       -2.8564041586  W2        5593            0.0000000000
     16778      5593  TIP3      H1             13.9021112922        2.0326436235       -3.8058041586  W2        5593            0.0000000000
     16779      5593  TIP3      H2             13.5508712922        1.0297736235       -2.7274941586  W2        5593            0.0000000000
     16780      5594  TIP3      OH2            15.1792112922        1.9632636235       -7.1639041586  W2        5594            0.0000000000
     16781      5594  TIP3      H1             14.4763212922        2.5781836235       -7.3737641586  W2        5594            0.0000000000
     16782      5594  TIP3      H2             14.7343512922        1.1259336235       -7.0328141586  W2        5594            0.0000000000
     16783      5595  TIP3      OH2             2.4271412922       17.7268236235       -7.6177641586  W2        5595            0.0000000000
     16784      5595  TIP3      H1              1.7421312922       17.6887136235       -8.2852541586  W2        5595            0.0000000000
     16785      5595  TIP3      H2              2.4308612922       18.6395836235       -7.3295541586  W2        5595            0.0000000000
     16786      5596  TIP3      OH2             4.3871012922        3.6947536235      -10.0728641586  W2        5596            0.0000000000
     16787      5596  TIP3      H1              4.8784412922        3.0649936235      -10.6003141586  W2        5596            0.0000000000
     16788      5596  TIP3      H2              5.0107312922        3.9906936235       -9.4097441586  W2        5596            0.0000000000
     16789      5597  TIP3      OH2             9.4131112922        3.9879036235       -7.6158141586  W2        5597            0.0000000000
     16790      5597  TIP3      H1              9.5912412922        3.3412236235       -6.9329541586  W2        5597            0.0000000000
     16791      5597  TIP3      H2              9.3597312922        4.8216736235       -7.1487041586  W2        5597            0.0000000000
     16792      5598  TIP3      OH2            11.2914912922       18.9363136235       -9.2201441586  W2        5598            0.0000000000
     16793      5598  TIP3      H1             12.1575112922       19.3030536235       -9.3983241586  W2        5598            0.0000000000
     16794      5598  TIP3      H2             11.0447712922       18.4971136235      -10.0340641586  W2        5598            0.0000000000
     16795      5599  TIP3      OH2            18.0004512922       18.4993436235       -6.5410341586  W2        5599            0.0000000000
     16796      5599  TIP3      H1             17.8061612922       17.7515536235       -7.1060741586  W2        5599            0.0000000000
     16797      5599  TIP3      H2             17.9614612922       19.2573536235       -7.1242441586  W2        5599            0.0000000000
     16798      5600  TIP3      OH2             3.6476512922        2.4949836235        5.1987358414  W2        5600            0.0000000000
     16799      5600  TIP3      H1              3.2814712922        1.7292436235        5.6412058414  W2        5600            0.0000000000
     16800      5600  TIP3      H2              4.5605012922        2.5240036235        5.4852458414  W2        5600            0.0000000000
     16801      5601  TIP3      OH2             5.6207312922        1.8454236235        6.7344458414  W2        5601            0.0000000000
     16802      5601  TIP3      H1              6.5190912922        1.5714436235        6.5497858414  W2        5601            0.0000000000
     16803      5601  TIP3      H2              5.2340412922        1.1030236235        7.1987058414  W2        5601            0.0000000000
     16804      5602  TIP3      OH2             4.2452612922       18.6469036235      -10.5925541586  W2        5602            0.0000000000
     16805      5602  TIP3      H1              3.9777212922       18.9331936235       -9.7192441586  W2        5602            0.0000000000
     16806      5602  TIP3      H2              5.0165212922       18.1008236235      -10.4403041586  W2        5602            0.0000000000
     16807      5603  TIP3      OH2            14.0419612922        1.1779536235        6.9167258414  W2        5603            0.0000000000
     16808      5603  TIP3      H1             14.1186812922        0.7520236235        7.7704958414  W2        5603            0.0000000000
     16809      5603  TIP3      H2             14.9356212922        1.1914236235        6.5740758414  W2        5603            0.0000000000
     16810      5604  TIP3      OH2            17.2180712922       17.2505836235        5.6091458414  W2        5604            0.0000000000
     16811      5604  TIP3      H1             16.4362612922       17.0643836235        5.0892058414  W2        5604            0.0000000000
     16812      5604  TIP3      H2             17.1460612922       18.1800136235        5.8263958414  W2        5604            0.0000000000
     16813      5605  TIP3      OH2            31.6241112922       11.1370236235       -4.3601341586  W2        5605            0.0000000000
     16814      5605  TIP3      H1             31.7132212922       12.0808436235       -4.4924241586  W2        5605            0.0000000000
     16815      5605  TIP3      H2             30.9858712922       10.8616636235       -5.0181941586  W2        5605            0.0000000000
     16816      5606  TIP3      OH2            30.5572412922       10.3920936235       -0.9413141586  W2        5606            0.0000000000
     16817      5606  TIP3      H1             30.5189912922        9.7457236235       -0.2363541586  W2        5606            0.0000000000
     16818      5606  TIP3      H2             30.2348912922        9.9255336235       -1.7124441586  W2        5606            0.0000000000
     16819      5607  TIP3      OH2            22.9257412922       10.0063036235        0.6516758414  W2        5607            0.0000000000
     16820      5607  TIP3      H1             22.9669512922        9.3806336235        1.3749158414  W2        5607            0.0000000000
     16821      5607  TIP3      H2             23.6285112922       10.6301636235        0.8337158414  W2        5607            0.0000000000
     16822      5608  TIP3      OH2            34.2632612922       13.3311336235       -2.6398041586  W2        5608            0.0000000000
     16823      5608  TIP3      H1             33.8225312922       12.6107336235       -2.1892441586  W2        5608            0.0000000000
     16824      5608  TIP3      H2             34.2502312922       14.0518536235       -2.0100341586  W2        5608            0.0000000000
     16825      5609  TIP3      OH2            23.8490512922       14.4561936235       -0.8134141586  W2        5609            0.0000000000
     16826      5609  TIP3      H1             23.4795712922       13.6542436235       -1.1829841586  W2        5609            0.0000000000
     16827      5609  TIP3      H2             24.7901612922       14.2876836235       -0.7670741586  W2        5609            0.0000000000
     16828      5610  TIP3      OH2            20.4591012922        8.1164536235       -5.4205341586  W2        5610            0.0000000000
     16829      5610  TIP3      H1             20.0114412922        8.9623236235       -5.4388841586  W2        5610            0.0000000000
     16830      5610  TIP3      H2             19.8982212922        7.5368736235       -5.9360241586  W2        5610            0.0000000000
     16831      5611  TIP3      OH2            21.1697112922       10.2784136235       -3.2947341586  W2        5611            0.0000000000
     16832      5611  TIP3      H1             21.3830612922        9.5085736235       -2.7674341586  W2        5611            0.0000000000
     16833      5611  TIP3      H2             21.9074712922       10.3680836235       -3.8979741586  W2        5611            0.0000000000
     16834      5612  TIP3      OH2            31.3748112922       18.4353036235       -2.4277641586  W2        5612            0.0000000000
     16835      5612  TIP3      H1             31.9944512922       17.7587736235       -2.7008441586  W2        5612            0.0000000000
     16836      5612  TIP3      H2             31.1665512922       18.2173836235       -1.5192741586  W2        5612            0.0000000000
     16837      5613  TIP3      OH2            28.9466812922       12.8242336235       -0.5352141586  W2        5613            0.0000000000
     16838      5613  TIP3      H1             29.2504712922       12.1383736235       -1.1298041586  W2        5613            0.0000000000
     16839      5613  TIP3      H2             29.6680812922       12.9431036235        0.0825858414  W2        5613            0.0000000000
     16840      5614  TIP3      OH2            32.0873812922        7.2184736235       -0.2077341586  W2        5614            0.0000000000
     16841      5614  TIP3      H1             32.2299712922        6.2721736235       -0.1875741586  W2        5614            0.0000000000
     16842      5614  TIP3      H2             31.9812812922        7.4254536235       -1.1362441586  W2        5614            0.0000000000
     16843      5615  TIP3      OH2            25.2422112922        5.3201136235       -2.9352541586  W2        5615            0.0000000000
     16844      5615  TIP3      H1             25.2853212922        6.1799636235       -3.3536241586  W2        5615            0.0000000000
     16845      5615  TIP3      H2             24.7846212922        4.7675836235       -3.5689341586  W2        5615            0.0000000000
     16846      5616  TIP3      OH2            32.9644812922        5.4506736235       -4.5344241586  W2        5616            0.0000000000
     16847      5616  TIP3      H1             33.6109112922        5.1219936235       -3.9096641586  W2        5616            0.0000000000
     16848      5616  TIP3      H2             33.4744212922        5.9685736235       -5.1572841586  W2        5616            0.0000000000
     16849      5617  TIP3      OH2            21.8623612922        7.7166936235       -2.1731141586  W2        5617            0.0000000000
     16850      5617  TIP3      H1             22.5160212922        7.1668636235       -1.7411041586  W2        5617            0.0000000000
     16851      5617  TIP3      H2             21.8862912922        7.4425936235       -3.0899141586  W2        5617            0.0000000000
     16852      5618  TIP3      OH2            27.0188112922        9.2668236235       -2.9579641586  W2        5618            0.0000000000
     16853      5618  TIP3      H1             27.6349112922        8.7403636235       -2.4485641586  W2        5618            0.0000000000
     16854      5618  TIP3      H2             26.4326912922        8.6266936235       -3.3616041586  W2        5618            0.0000000000
     16855      5619  TIP3      OH2            24.0524012922        4.2379536235        1.1388258414  W2        5619            0.0000000000
     16856      5619  TIP3      H1             23.8335712922        4.7680136235        0.3724258414  W2        5619            0.0000000000
     16857      5619  TIP3      H2             23.3844912922        4.4645036235        1.7859658414  W2        5619            0.0000000000
     16858      5620  TIP3      OH2            31.4213812922       13.7380636235       -5.3172641586  W2        5620            0.0000000000
     16859      5620  TIP3      H1             31.1258912922       13.4152936235       -6.1685741586  W2        5620            0.0000000000
     16860      5620  TIP3      H2             31.0971612922       14.6377336235       -5.2760041586  W2        5620            0.0000000000
     16861      5621  TIP3      OH2            26.6215412922       11.9135236235        1.4261958414  W2        5621            0.0000000000
     16862      5621  TIP3      H1             25.8814512922       12.5116736235        1.5297158414  W2        5621            0.0000000000
     16863      5621  TIP3      H2             27.3354912922       12.4674836235        1.1105558414  W2        5621            0.0000000000
     16864      5622  TIP3      OH2            34.7283212922        4.7416036235       -2.5538341586  W2        5622            0.0000000000
     16865      5622  TIP3      H1             34.5131212922        3.9759436235       -2.0212341586  W2        5622            0.0000000000
     16866      5622  TIP3      H2             35.3840612922        5.2140636235       -2.0409841586  W2        5622            0.0000000000
     16867      5623  TIP3      OH2            23.6461312922        6.1301336235       -0.9089541586  W2        5623            0.0000000000
     16868      5623  TIP3      H1             24.2597612922        6.7628936235       -0.5357141586  W2        5623            0.0000000000
     16869      5623  TIP3      H2             24.1582012922        5.6576336235       -1.5652641586  W2        5623            0.0000000000
     16870      5624  TIP3      OH2            25.0289712922       13.8778236235        2.2133458414  W2        5624            0.0000000000
     16871      5624  TIP3      H1             25.0237312922       14.7571736235        1.8352758414  W2        5624            0.0000000000
     16872      5624  TIP3      H2             24.1753812922       13.7942336235        2.6383358414  W2        5624            0.0000000000
     16873      5625  TIP3      OH2            21.1500612922       13.5486136235       -7.0047241586  W2        5625            0.0000000000
     16874      5625  TIP3      H1             20.8781512922       13.7777136235       -7.8934341586  W2        5625            0.0000000000
     16875      5625  TIP3      H2             21.1956312922       14.3864936235       -6.5441941586  W2        5625            0.0000000000
     16876      5626  TIP3      OH2            34.7750312922       15.1702036235       -0.2918741586  W2        5626            0.0000000000
     16877      5626  TIP3      H1             33.8334012922       15.2285936235       -0.1301841586  W2        5626            0.0000000000
     16878      5626  TIP3      H2             35.0516412922       16.0762536235       -0.4289041586  W2        5626            0.0000000000
     16879      5627  TIP3      OH2            35.0757312922        3.4567336235        1.1255158414  W2        5627            0.0000000000
     16880      5627  TIP3      H1             34.3396512922        4.0674436235        1.0876458414  W2        5627            0.0000000000
     16881      5627  TIP3      H2             35.7591312922        3.8716336235        0.5991558414  W2        5627            0.0000000000
     16882      5628  TIP3      OH2            28.0788712922        1.5434636235       -1.4086841586  W2        5628            0.0000000000
     16883      5628  TIP3      H1             27.9612912922        0.5950636235       -1.4628541586  W2        5628            0.0000000000
     16884      5628  TIP3      H2             27.2238812922        1.8760736235       -1.1355741586  W2        5628            0.0000000000
     16885      5629  TIP3      OH2            33.0271512922       16.9515536235       -3.6667141586  W2        5629            0.0000000000
     16886      5629  TIP3      H1             33.4523812922       16.2443436235       -4.1517541586  W2        5629            0.0000000000
     16887      5629  TIP3      H2             33.3441512922       17.7528236235       -4.0834941586  W2        5629            0.0000000000
     16888      5630  TIP3      OH2            34.1868012922       14.8524036235       -5.1580541586  W2        5630            0.0000000000
     16889      5630  TIP3      H1             33.9292812922       14.1624136235       -5.7694641586  W2        5630            0.0000000000
     16890      5630  TIP3      H2             34.2578812922       14.4095236235       -4.3124641586  W2        5630            0.0000000000
     16891      5631  TIP3      OH2            35.8728212922       13.4190736235        3.3192958414  W2        5631            0.0000000000
     16892      5631  TIP3      H1             36.0124512922       12.8273236235        2.5799958414  W2        5631            0.0000000000
     16893      5631  TIP3      H2             36.0401012922       14.2916636235        2.9631758414  W2        5631            0.0000000000
     16894      5632  TIP3      OH2            30.3453612922       10.3810236235       -6.9081041586  W2        5632            0.0000000000
     16895      5632  TIP3      H1             29.6339112922       10.9159936235       -7.2600541586  W2        5632            0.0000000000
     16896      5632  TIP3      H2             31.0363212922       10.4362336235       -7.5682141586  W2        5632            0.0000000000
     16897      5633  TIP3      OH2            30.3992812922        8.8384536235       -9.8696041586  W2        5633            0.0000000000
     16898      5633  TIP3      H1             31.1002712922        8.8611436235       -9.2182041586  W2        5633            0.0000000000
     16899      5633  TIP3      H2             30.7015712922        8.2104236235      -10.5256741586  W2        5633            0.0000000000
     16900      5634  TIP3      OH2            33.7511312922       10.5903536235       -5.9565141586  W2        5634            0.0000000000
     16901      5634  TIP3      H1             33.0192312922       10.8187236235       -5.3834541586  W2        5634            0.0000000000
     16902      5634  TIP3      H2             34.1983512922        9.8766236235       -5.5017641586  W2        5634            0.0000000000
     16903      5635  TIP3      OH2            33.6484812922        8.7646136235        3.1111858414  W2        5635            0.0000000000
     16904      5635  TIP3      H1             33.7283912922        9.5280536235        3.6830358414  W2        5635            0.0000000000
     16905      5635  TIP3      H2             33.0472512922        9.0438536235        2.4206958414  W2        5635            0.0000000000
     16906      5636  TIP3      OH2            25.3965012922       11.2209736235       -4.0740141586  W2        5636            0.0000000000
     16907      5636  TIP3      H1             25.0660212922       10.8503136235       -4.8923141586  W2        5636            0.0000000000
     16908      5636  TIP3      H2             25.9849112922       10.5503736235       -3.7271841586  W2        5636            0.0000000000
     16909      5637  TIP3      OH2            26.7632512922       14.6490336235       -1.3927941586  W2        5637            0.0000000000
     16910      5637  TIP3      H1             26.6683812922       14.0703436235       -2.1493341586  W2        5637            0.0000000000
     16911      5637  TIP3      H2             27.4926112922       14.2776036235       -0.8965141586  W2        5637            0.0000000000
     16912      5638  TIP3      OH2            25.7630512922        9.9895336235       -0.4405141586  W2        5638            0.0000000000
     16913      5638  TIP3      H1             26.3283012922       10.1109536235       -1.2033941586  W2        5638            0.0000000000
     16914      5638  TIP3      H2             26.0819412922       10.6270336235        0.1983358414  W2        5638            0.0000000000
     16915      5639  TIP3      OH2            32.0722712922       15.4927236235        0.2935358414  W2        5639            0.0000000000
     16916      5639  TIP3      H1             31.8319312922       16.1550336235        0.9414558414  W2        5639            0.0000000000
     16917      5639  TIP3      H2             31.8740912922       14.6582436235        0.7184958414  W2        5639            0.0000000000
     16918      5640  TIP3      OH2            26.6431212922       14.3888036235        4.2766758414  W2        5640            0.0000000000
     16919      5640  TIP3      H1             26.3318712922       15.1711236235        4.7319958414  W2        5640            0.0000000000
     16920      5640  TIP3      H2             25.9931412922       14.2357136235        3.5908758414  W2        5640            0.0000000000
     16921      5641  TIP3      OH2            32.6220812922        9.7526436235       -8.2713941586  W2        5641            0.0000000000
     16922      5641  TIP3      H1             33.2016312922        9.9026736235       -7.5245041586  W2        5641            0.0000000000
     16923      5641  TIP3      H2             33.0360812922       10.2233836235       -8.9947541586  W2        5641            0.0000000000
     16924      5642  TIP3      OH2            23.5631112922       10.5869136235        3.5052458414  W2        5642            0.0000000000
     16925      5642  TIP3      H1             23.6334312922       11.2375936235        4.2037458414  W2        5642            0.0000000000
     16926      5642  TIP3      H2             22.6723312922       10.6896636235        3.1703358414  W2        5642            0.0000000000
     16927      5643  TIP3      OH2            30.3485712922       16.4894936235       -4.8360841586  W2        5643            0.0000000000
     16928      5643  TIP3      H1             30.8223312922       16.7851236235       -4.0586641586  W2        5643            0.0000000000
     16929      5643  TIP3      H2             29.7855012922       17.2276536235       -5.0691241586  W2        5643            0.0000000000
     16930      5644  TIP3      OH2            24.8827112922       16.4603036235        5.0400558414  W2        5644            0.0000000000
     16931      5644  TIP3      H1             24.8902412922       16.3242736235        4.0926058414  W2        5644            0.0000000000
     16932      5644  TIP3      H2             23.9667512922       16.3431136235        5.2920558414  W2        5644            0.0000000000
     16933      5645  TIP3      OH2            36.3209212922        1.5026836235       -8.4584241586  W2        5645            0.0000000000
     16934      5645  TIP3      H1             35.4209912922        1.6415836235       -8.1633641586  W2        5645            0.0000000000
     16935      5645  TIP3      H2             36.5727612922        2.3341436235       -8.8602541586  W2        5645            0.0000000000
     16936      5646  TIP3      OH2            24.3867712922       10.2904036235       -6.4847341586  W2        5646            0.0000000000
     16937      5646  TIP3      H1             24.0949012922       11.0585736235       -6.9756041586  W2        5646            0.0000000000
     16938      5646  TIP3      H2             23.7122912922        9.6310236235       -6.6475941586  W2        5646            0.0000000000
     16939      5647  TIP3      OH2            20.4797812922       12.6533236235        2.3302458414  W2        5647            0.0000000000
     16940      5647  TIP3      H1             19.9786212922       12.6252636235        1.5152158414  W2        5647            0.0000000000
     16941      5647  TIP3      H2             20.4851512922       11.7476436235        2.6399758414  W2        5647            0.0000000000
     16942      5648  TIP3      OH2            20.2300512922       15.4337036235       -0.7857341586  W2        5648            0.0000000000
     16943      5648  TIP3      H1             21.1761112922       15.2894036235       -0.8047841586  W2        5648            0.0000000000
     16944      5648  TIP3      H2             20.1176812922       16.2179836235       -0.2486141586  W2        5648            0.0000000000
     16945      5649  TIP3      OH2            29.4063012922       15.6735936235        3.7727758414  W2        5649            0.0000000000
     16946      5649  TIP3      H1             29.4937612922       16.5000536235        4.2476858414  W2        5649            0.0000000000
     16947      5649  TIP3      H2             28.5428112922       15.3439736235        4.0217058414  W2        5649            0.0000000000
     16948      5650  TIP3      OH2            29.8208812922       19.4459636235       -6.4211641586  W2        5650            0.0000000000
     16949      5650  TIP3      H1             29.7454812922       19.3246836235       -7.3676441586  W2        5650            0.0000000000
     16950      5650  TIP3      H2             29.8537512922       20.3952336235       -6.3027041586  W2        5650            0.0000000000
     16951      5651  TIP3      OH2            23.4742612922       18.2346636235       -4.6402641586  W2        5651            0.0000000000
     16952      5651  TIP3      H1             23.6263012922       17.8867036235       -3.7616141586  W2        5651            0.0000000000
     16953      5651  TIP3      H2             22.6233012922       17.8783936235       -4.8955441586  W2        5651            0.0000000000
     16954      5652  TIP3      OH2            32.9224812922       18.5999836235       -9.4189241586  W2        5652            0.0000000000
     16955      5652  TIP3      H1             33.2973212922       17.8555936235       -9.8896641586  W2        5652            0.0000000000
     16956      5652  TIP3      H2             32.9268512922       18.3300436235       -8.5005941586  W2        5652            0.0000000000
     16957      5653  TIP3      OH2            32.5912912922       18.5256936235       -6.6697041586  W2        5653            0.0000000000
     16958      5653  TIP3      H1             31.6562712922       18.6258836235       -6.4910041586  W2        5653            0.0000000000
     16959      5653  TIP3      H2             32.8714812922       17.8162936235       -6.0913841586  W2        5653            0.0000000000
     16960      5654  TIP3      OH2            35.5798812922        7.5929236235        5.3768558414  W2        5654            0.0000000000
     16961      5654  TIP3      H1             35.1725612922        8.0734836235        4.6561858414  W2        5654            0.0000000000
     16962      5654  TIP3      H2             35.6204512922        6.6875236235        5.0689358414  W2        5654            0.0000000000
     16963      5655  TIP3      OH2            22.7288312922       13.9768636235        3.3735258414  W2        5655            0.0000000000
     16964      5655  TIP3      H1             22.9449612922       13.6154236235        4.2331058414  W2        5655            0.0000000000
     16965      5655  TIP3      H2             21.8733012922       13.6022436235        3.1638758414  W2        5655            0.0000000000
     16966      5656  TIP3      OH2            25.3476312922        2.4469136235       -0.6310541586  W2        5656            0.0000000000
     16967      5656  TIP3      H1             24.4860012922        2.3597336235       -1.0387641586  W2        5656            0.0000000000
     16968      5656  TIP3      H2             25.3252012922        3.3029236235       -0.2032941586  W2        5656            0.0000000000
     16969      5657  TIP3      OH2            30.0104112922        2.1689536235        2.7436458414  W2        5657            0.0000000000
     16970      5657  TIP3      H1             30.4307212922        1.7536636235        3.4967058414  W2        5657            0.0000000000
     16971      5657  TIP3      H2             29.0773712922        1.9902836235        2.8608458414  W2        5657            0.0000000000
     16972      5658  TIP3      OH2            33.3369012922        5.9244736235        3.5970958414  W2        5658            0.0000000000
     16973      5658  TIP3      H1             32.8228512922        5.7986936235        4.3946958414  W2        5658            0.0000000000
     16974      5658  TIP3      H2             33.1813712922        6.8367836235        3.3527158414  W2        5658            0.0000000000
     16975      5659  TIP3      OH2            34.0993912922       10.7854736235      -10.6416041586  W2        5659            0.0000000000
     16976      5659  TIP3      H1             34.1414712922       10.5628636235      -11.5716041586  W2        5659            0.0000000000
     16977      5659  TIP3      H2             34.9486012922       11.1841836235      -10.4516141586  W2        5659            0.0000000000
     16978      5660  TIP3      OH2            29.6721412922        4.6612936235       -9.9712741586  W2        5660            0.0000000000
     16979      5660  TIP3      H1             29.4186212922        4.6804536235       -9.0484641586  W2        5660            0.0000000000
     16980      5660  TIP3      H2             29.4153512922        3.7898336235      -10.2726541586  W2        5660            0.0000000000
     16981      5661  TIP3      OH2            25.4386412922        7.4123636235        0.4639658414  W2        5661            0.0000000000
     16982      5661  TIP3      H1             24.7968512922        7.3720936235        1.1729758414  W2        5661            0.0000000000
     16983      5661  TIP3      H2             25.4758412922        8.3388336235        0.2262658414  W2        5661            0.0000000000
     16984      5662  TIP3      OH2            25.4355512922        7.6333736235       -4.6240341586  W2        5662            0.0000000000
     16985      5662  TIP3      H1             24.5428412922        7.2929836235       -4.6826541586  W2        5662            0.0000000000
     16986      5662  TIP3      H2             25.8862112922        7.2564636235       -5.3797141586  W2        5662            0.0000000000
     16987      5663  TIP3      OH2            30.9711012922        8.0494036235       -5.8069541586  W2        5663            0.0000000000
     16988      5663  TIP3      H1             30.5621312922        8.8642636235       -6.0984741586  W2        5663            0.0000000000
     16989      5663  TIP3      H2             31.6917212922        7.9094136235       -6.4212441586  W2        5663            0.0000000000
     16990      5664  TIP3      OH2            30.0732612922        8.2250436235        5.6811158414  W2        5664            0.0000000000
     16991      5664  TIP3      H1             29.5106412922        7.5202036235        6.0018958414  W2        5664            0.0000000000
     16992      5664  TIP3      H2             30.8996012922        8.1042336235        6.1488758414  W2        5664            0.0000000000
     16993      5665  TIP3      OH2            31.9758712922        7.4954436235       -2.9929841586  W2        5665            0.0000000000
     16994      5665  TIP3      H1             31.7803212922        8.1011236235       -3.7079241586  W2        5665            0.0000000000
     16995      5665  TIP3      H2             32.1571312922        6.6619636235       -3.4273541586  W2        5665            0.0000000000
     16996      5666  TIP3      OH2            23.1886912922        7.7327136235        2.3311658414  W2        5666            0.0000000000
     16997      5666  TIP3      H1             23.1506312922        8.1328736235        3.1998758414  W2        5666            0.0000000000
     16998      5666  TIP3      H2             22.6978012922        6.9159536235        2.4214558414  W2        5666            0.0000000000
     16999      5667  TIP3      OH2            26.5544312922        5.1069436235      -10.8702341586  W2        5667            0.0000000000
     17000      5667  TIP3      H1             26.1235012922        4.6619536235      -10.1404941586  W2        5667            0.0000000000
     17001      5667  TIP3      H2             25.8363012922        5.4785736235      -11.3824841586  W2        5667            0.0000000000
     17002      5668  TIP3      OH2            19.7967712922        4.8488936235       -3.8183641586  W2        5668            0.0000000000
     17003      5668  TIP3      H1             20.4275412922        4.8201036235       -3.0989741586  W2        5668            0.0000000000
     17004      5668  TIP3      H2             20.2462012922        4.4237636235       -4.5487741586  W2        5668            0.0000000000
     17005      5669  TIP3      OH2            21.0709812922        5.5950936235       -8.3943241586  W2        5669            0.0000000000
     17006      5669  TIP3      H1             21.5451512922        6.1860836235       -8.9792341586  W2        5669            0.0000000000
     17007      5669  TIP3      H2             20.3536212922        6.1253836235       -8.0473141586  W2        5669            0.0000000000
     17008      5670  TIP3      OH2            31.2397912922        9.1335736235        1.6782558414  W2        5670            0.0000000000
     17009      5670  TIP3      H1             31.5632712922        8.5025436235        1.0353058414  W2        5670            0.0000000000
     17010      5670  TIP3      H2             30.7997212922        8.5987936235        2.3389958414  W2        5670            0.0000000000
     17011      5671  TIP3      OH2            28.0170812922        5.0611236235       -3.5376241586  W2        5671            0.0000000000
     17012      5671  TIP3      H1             27.1061912922        5.1178036235       -3.2490241586  W2        5671            0.0000000000
     17013      5671  TIP3      H2             28.5223712922        5.0006736235       -2.7269041586  W2        5671            0.0000000000
     17014      5672  TIP3      OH2            22.8454212922        6.6897536235       -4.7108641586  W2        5672            0.0000000000
     17015      5672  TIP3      H1             21.9562212922        6.7893036235       -5.0509041586  W2        5672            0.0000000000
     17016      5672  TIP3      H2             23.1419112922        5.8480536235       -5.0570741586  W2        5672            0.0000000000
     17017      5673  TIP3      OH2            26.4986012922        6.6900136235       -7.0544041586  W2        5673            0.0000000000
     17018      5673  TIP3      H1             27.4301512922        6.8190136235       -6.8760941586  W2        5673            0.0000000000
     17019      5673  TIP3      H2             26.2836312922        7.3594436235       -7.7039341586  W2        5673            0.0000000000
     17020      5674  TIP3      OH2            32.4222712922        4.2957536235       -0.2734441586  W2        5674            0.0000000000
     17021      5674  TIP3      H1             31.7454312922        4.4270636235        0.3905258414  W2        5674            0.0000000000
     17022      5674  TIP3      H2             31.9367612922        4.1407036235       -1.0836741586  W2        5674            0.0000000000
     17023      5675  TIP3      OH2            25.1726212922        7.8842336235       -9.4877941586  W2        5675            0.0000000000
     17024      5675  TIP3      H1             24.6301312922        7.5046136235      -10.1790341586  W2        5675            0.0000000000
     17025      5675  TIP3      H2             26.0061112922        8.0787036235       -9.9163841586  W2        5675            0.0000000000
     17026      5676  TIP3      OH2            35.7097812922       19.9672936235        6.0033158414  W2        5676            0.0000000000
     17027      5676  TIP3      H1             35.9096512922       20.3914836235        5.1688458414  W2        5676            0.0000000000
     17028      5676  TIP3      H2             36.3651512922       20.3111136235        6.6103558414  W2        5676            0.0000000000
     17029      5677  TIP3      OH2            23.3077612922       12.4414236235        5.6113658414  W2        5677            0.0000000000
     17030      5677  TIP3      H1             24.0400012922       12.6960136235        6.1728158414  W2        5677            0.0000000000
     17031      5677  TIP3      H2             22.5276312922       12.6459636235        6.1269058414  W2        5677            0.0000000000
     17032      5678  TIP3      OH2            29.3370512922        7.8484236235       -1.6506641586  W2        5678            0.0000000000
     17033      5678  TIP3      H1             29.9013912922        7.3020836235       -2.1977041586  W2        5678            0.0000000000
     17034      5678  TIP3      H2             29.1893912922        7.3266136235       -0.8619041586  W2        5678            0.0000000000
     17035      5679  TIP3      OH2            24.3390212922        3.9850336235       -5.2321841586  W2        5679            0.0000000000
     17036      5679  TIP3      H1             24.0219712922        3.0825636235       -5.2676441586  W2        5679            0.0000000000
     17037      5679  TIP3      H2             25.1204312922        3.9867736235       -5.7850241586  W2        5679            0.0000000000
     17038      5680  TIP3      OH2            27.9636412922        6.2370336235        0.7633758414  W2        5680            0.0000000000
     17039      5680  TIP3      H1             27.1281712922        6.6909836235        0.8736158414  W2        5680            0.0000000000
     17040      5680  TIP3      H2             28.4877012922        6.5128836235        1.5153658414  W2        5680            0.0000000000
     17041      5681  TIP3      OH2            28.5079012922       12.4498036235       -7.5519841586  W2        5681            0.0000000000
     17042      5681  TIP3      H1             27.7630012922       11.9423336235       -7.8741941586  W2        5681            0.0000000000
     17043      5681  TIP3      H2             28.3736212922       12.4986036235       -6.6055041586  W2        5681            0.0000000000
     17044      5682  TIP3      OH2            35.6577912922       11.5826236235        1.2347758414  W2        5682            0.0000000000
     17045      5682  TIP3      H1             36.2996712922       12.0392536235        0.6909958414  W2        5682            0.0000000000
     17046      5682  TIP3      H2             34.8274812922       11.6958636235        0.7721858414  W2        5682            0.0000000000
     17047      5683  TIP3      OH2            32.4055812922        5.2637936235       -9.3527241586  W2        5683            0.0000000000
     17048      5683  TIP3      H1             31.4670012922        5.3753536235       -9.5038441586  W2        5683            0.0000000000
     17049      5683  TIP3      H2             32.7027912922        6.1204836235       -9.0461541586  W2        5683            0.0000000000
     17050      5684  TIP3      OH2            30.0271112922       12.6341336235        3.6849258414  W2        5684            0.0000000000
     17051      5684  TIP3      H1             29.6817212922       12.2523736235        4.4918858414  W2        5684            0.0000000000
     17052      5684  TIP3      H2             29.8271212922       13.5674936235        3.7562158414  W2        5684            0.0000000000
     17053      5685  TIP3      OH2            33.1239312922        7.1310636235       -7.6919841586  W2        5685            0.0000000000
     17054      5685  TIP3      H1             34.0158312922        6.9935636235       -7.3728641586  W2        5685            0.0000000000
     17055      5685  TIP3      H2             33.1802912922        7.9216736235       -8.2286341586  W2        5685            0.0000000000
     17056      5686  TIP3      OH2            23.6327312922       11.7448036235       -1.7821941586  W2        5686            0.0000000000
     17057      5686  TIP3      H1             24.3774512922       11.7423736235       -2.3835441586  W2        5686            0.0000000000
     17058      5686  TIP3      H2             23.7103912922       10.9211836235       -1.3006841586  W2        5686            0.0000000000
     17059      5687  TIP3      OH2            30.6333112922       13.9082336235       -8.5265241586  W2        5687            0.0000000000
     17060      5687  TIP3      H1             30.3381512922       14.7350236235       -8.1450441586  W2        5687            0.0000000000
     17061      5687  TIP3      H2             29.9303112922       13.2889236235       -8.3303841586  W2        5687            0.0000000000
     17062      5688  TIP3      OH2            20.6407012922       10.2054936235        3.5326558414  W2        5688            0.0000000000
     17063      5688  TIP3      H1             20.8635612922        9.7874536235        4.3644058414  W2        5688            0.0000000000
     17064      5688  TIP3      H2             20.0387112922        9.5929936235        3.1099358414  W2        5688            0.0000000000
     17065      5689  TIP3      OH2            27.6571912922        9.7224836235        5.7456258414  W2        5689            0.0000000000
     17066      5689  TIP3      H1             27.3612712922        9.5567836235        4.8505358414  W2        5689            0.0000000000
     17067      5689  TIP3      H2             28.5887112922        9.5025136235        5.7350158414  W2        5689            0.0000000000
     17068      5690  TIP3      OH2            32.2774712922       15.0956836235        3.6354258414  W2        5690            0.0000000000
     17069      5690  TIP3      H1             31.3769012922       15.2789436235        3.3678158414  W2        5690            0.0000000000
     17070      5690  TIP3      H2             32.3115812922       15.3546136235        4.5563058414  W2        5690            0.0000000000
     17071      5691  TIP3      OH2            36.3039712922       16.1265136235       -7.5321041586  W2        5691            0.0000000000
     17072      5691  TIP3      H1             35.9310812922       15.3008936235       -7.2230441586  W2        5691            0.0000000000
     17073      5691  TIP3      H2             36.5813212922       15.9434536235       -8.4297641586  W2        5691            0.0000000000
     17074      5692  TIP3      OH2            33.4643612922       10.9344636235       -0.5109141586  W2        5692            0.0000000000
     17075      5692  TIP3      H1             32.5360512922       10.7026536235       -0.5379841586  W2        5692            0.0000000000
     17076      5692  TIP3      H2             33.9154712922       10.1574436235       -0.8410341586  W2        5692            0.0000000000
     17077      5693  TIP3      OH2            26.0076712922       15.2626236235       -4.3780441586  W2        5693            0.0000000000
     17078      5693  TIP3      H1             26.5348912922       16.0360636235       -4.5781641586  W2        5693            0.0000000000
     17079      5693  TIP3      H2             25.1275212922       15.4875436235       -4.6796441586  W2        5693            0.0000000000
     17080      5694  TIP3      OH2            21.7624412922       10.1250336235       -9.7908041586  W2        5694            0.0000000000
     17081      5694  TIP3      H1             22.3784312922       10.7517536235       -9.4113241586  W2        5694            0.0000000000
     17082      5694  TIP3      H2             20.9007012922       10.4410136235       -9.5191541586  W2        5694            0.0000000000
     17083      5695  TIP3      OH2            27.4349012922       12.9256136235       -4.8016141586  W2        5695            0.0000000000
     17084      5695  TIP3      H1             27.1939012922       13.8510536235       -4.7600841586  W2        5695            0.0000000000
     17085      5695  TIP3      H2             26.6942612922       12.4667436235       -4.4052241586  W2        5695            0.0000000000
     17086      5696  TIP3      OH2            27.9495612922       17.0749736235        1.5134958414  W2        5696            0.0000000000
     17087      5696  TIP3      H1             28.3120312922       17.9295336235        1.2799358414  W2        5696            0.0000000000
     17088      5696  TIP3      H2             28.4810812922       16.7831336235        2.2541258414  W2        5696            0.0000000000
     17089      5697  TIP3      OH2            26.1179812922       17.9473736235       -5.2563941586  W2        5697            0.0000000000
     17090      5697  TIP3      H1             25.1680312922       18.0531136235       -5.2050641586  W2        5697            0.0000000000
     17091      5697  TIP3      H2             26.4697912922       18.7681136235       -4.9116441586  W2        5697            0.0000000000
     17092      5698  TIP3      OH2            31.4936412922       13.1740436235        1.2140558414  W2        5698            0.0000000000
     17093      5698  TIP3      H1             31.0677712922       12.9462136235        2.0404558414  W2        5698            0.0000000000
     17094      5698  TIP3      H2             32.0742212922       12.4352236235        1.0315858414  W2        5698            0.0000000000
     17095      5699  TIP3      OH2            33.6965312922       14.1030936235       -9.7120441586  W2        5699            0.0000000000
     17096      5699  TIP3      H1             34.0498412922       13.7230736235       -8.9076941586  W2        5699            0.0000000000
     17097      5699  TIP3      H2             32.7478812922       14.0095736235       -9.6251141586  W2        5699            0.0000000000
     17098      5700  TIP3      OH2            34.1520612922       17.7259936235        3.6835358414  W2        5700            0.0000000000
     17099      5700  TIP3      H1             33.5503812922       17.1702836235        3.1881658414  W2        5700            0.0000000000
     17100      5700  TIP3      H2             34.4334312922       18.3929736235        3.0572758414  W2        5700            0.0000000000
     17101      5701  TIP3      OH2            22.2746512922        4.9587636235        3.0907958414  W2        5701            0.0000000000
     17102      5701  TIP3      H1             21.3818812922        5.2973036235        3.0231958414  W2        5701            0.0000000000
     17103      5701  TIP3      H2             22.1759312922        4.1033736235        3.5088758414  W2        5701            0.0000000000
     17104      5702  TIP3      OH2            34.5624612922       12.7752936235       -7.4852541586  W2        5702            0.0000000000
     17105      5702  TIP3      H1             34.2852212922       12.0472236235       -6.9291441586  W2        5702            0.0000000000
     17106      5702  TIP3      H2             35.4897612922       12.8944936235       -7.2799941586  W2        5702            0.0000000000
     17107      5703  TIP3      OH2            21.9258512922       16.7632036235        1.5257358414  W2        5703            0.0000000000
     17108      5703  TIP3      H1             22.1428812922       15.8314436235        1.4947058414  W2        5703            0.0000000000
     17109      5703  TIP3      H2             22.1722012922       17.0377036235        2.4090158414  W2        5703            0.0000000000
     17110      5704  TIP3      OH2            27.7873112922       15.2147036235      -11.2650441586  W2        5704            0.0000000000
     17111      5704  TIP3      H1             28.0262912922       14.4665136235      -11.8121541586  W2        5704            0.0000000000
     17112      5704  TIP3      H2             27.5184412922       14.8268736235      -10.4322641586  W2        5704            0.0000000000
     17113      5705  TIP3      OH2            26.7243712922       14.7850836235       -8.8087841586  W2        5705            0.0000000000
     17114      5705  TIP3      H1             26.8711712922       14.2650636235       -8.0186941586  W2        5705            0.0000000000
     17115      5705  TIP3      H2             26.7215412922       15.6918436235       -8.5021941586  W2        5705            0.0000000000
     17116      5706  TIP3      OH2            23.1774812922       12.0374136235       -8.2982441586  W2        5706            0.0000000000
     17117      5706  TIP3      H1             22.4914112922       12.3896636235       -7.7312741586  W2        5706            0.0000000000
     17118      5706  TIP3      H2             23.7002712922       12.8003736235       -8.5448141586  W2        5706            0.0000000000
     17119      5707  TIP3      OH2            31.0089912922        4.6997936235        1.9806558414  W2        5707            0.0000000000
     17120      5707  TIP3      H1             31.7077812922        4.7736636235        2.6306258414  W2        5707            0.0000000000
     17121      5707  TIP3      H2             30.6281312922        3.8352936235        2.1349458414  W2        5707            0.0000000000
     17122      5708  TIP3      OH2            31.7934812922        4.3519636235       -6.9221141586  W2        5708            0.0000000000
     17123      5708  TIP3      H1             32.0133112922        4.8235036235       -7.7255741586  W2        5708            0.0000000000
     17124      5708  TIP3      H2             32.3518812922        4.7462236235       -6.2520541586  W2        5708            0.0000000000
     17125      5709  TIP3      OH2            29.4620912922       16.4824436235       -8.0593641586  W2        5709            0.0000000000
     17126      5709  TIP3      H1             28.6457012922       16.9794136235       -8.0069341586  W2        5709            0.0000000000
     17127      5709  TIP3      H2             29.9917212922       16.9577936235       -8.6994841586  W2        5709            0.0000000000
     17128      5710  TIP3      OH2            28.9934712922        6.0798436235       -6.0872741586  W2        5710            0.0000000000
     17129      5710  TIP3      H1             29.8057312922        6.5841636235       -6.0411041586  W2        5710            0.0000000000
     17130      5710  TIP3      H2             28.7487712922        5.9348136235       -5.1733141586  W2        5710            0.0000000000
     17131      5711  TIP3      OH2            29.5291112922        7.0661136235        3.0973858414  W2        5711            0.0000000000
     17132      5711  TIP3      H1             29.6481412922        7.6396536235        3.8544258414  W2        5711            0.0000000000
     17133      5711  TIP3      H2             30.1845712922        6.3780536235        3.2121658414  W2        5711            0.0000000000
     17134      5712  TIP3      OH2            29.8771412922        3.1611436235       -5.1491641586  W2        5712            0.0000000000
     17135      5712  TIP3      H1             29.5304912922        3.7782036235       -4.5047341586  W2        5712            0.0000000000
     17136      5712  TIP3      H2             30.5358312922        3.6617136235       -5.6306141586  W2        5712            0.0000000000
     17137      5713  TIP3      OH2            26.8004012922       17.5261636235       -8.0776741586  W2        5713            0.0000000000
     17138      5713  TIP3      H1             26.9612712922       18.3259136235       -8.5784141586  W2        5713            0.0000000000
     17139      5713  TIP3      H2             26.6031812922       17.8327636235       -7.1926141586  W2        5713            0.0000000000
     17140      5714  TIP3      OH2            25.5348412922        4.2240836235       -8.4619141586  W2        5714            0.0000000000
     17141      5714  TIP3      H1             25.4513212922        5.1123936235       -8.1152741586  W2        5714            0.0000000000
     17142      5714  TIP3      H2             26.4248712922        3.9587536235       -8.2302341586  W2        5714            0.0000000000
     17143      5715  TIP3      OH2            35.7336912922        4.9731436235        3.9323558414  W2        5715            0.0000000000
     17144      5715  TIP3      H1             34.8172712922        5.2353136235        3.8447258414  W2        5715            0.0000000000
     17145      5715  TIP3      H2             36.0691912922        4.9700436235        3.0358858414  W2        5715            0.0000000000
     17146      5716  TIP3      OH2            34.3357912922        8.7232436235       -1.9719141586  W2        5716            0.0000000000
     17147      5716  TIP3      H1             33.5382312922        8.3082636235       -2.3004141586  W2        5716            0.0000000000
     17148      5716  TIP3      H2             34.7809012922        8.0326136235       -1.4808641586  W2        5716            0.0000000000
     17149      5717  TIP3      OH2            23.7933712922       14.6513036235       -9.4014641586  W2        5717            0.0000000000
     17150      5717  TIP3      H1             24.3855212922       15.3507836235       -9.1252241586  W2        5717            0.0000000000
     17151      5717  TIP3      H2             24.2526712922       14.2182536235      -10.1210041586  W2        5717            0.0000000000
     17152      5718  TIP3      OH2            22.1092912922        7.3156036235      -10.2855241586  W2        5718            0.0000000000
     17153      5718  TIP3      H1             22.0645512922        8.2549136235      -10.1068241586  W2        5718            0.0000000000
     17154      5718  TIP3      H2             21.2216112922        7.0800936235      -10.5553141586  W2        5718            0.0000000000
     17155      5719  TIP3      OH2            35.4222512922       17.9794936235       -0.3495641586  W2        5719            0.0000000000
     17156      5719  TIP3      H1             35.2666812922       18.6579336235       -1.0066341586  W2        5719            0.0000000000
     17157      5719  TIP3      H2             36.3548912922       18.0514236235       -0.1465041586  W2        5719            0.0000000000
     17158      5720  TIP3      OH2            22.9174912922        2.0972636235       -1.6124241586  W2        5720            0.0000000000
     17159      5720  TIP3      H1             22.6884712922        2.1565136235       -2.5399241586  W2        5720            0.0000000000
     17160      5720  TIP3      H2             22.4748312922        1.3058136235       -1.3060141586  W2        5720            0.0000000000
     17161      5721  TIP3      OH2            21.8478212922       16.0379736235       -5.4518441586  W2        5721            0.0000000000
     17162      5721  TIP3      H1             21.0156812922       16.5102436235       -5.4247041586  W2        5721            0.0000000000
     17163      5721  TIP3      H2             22.3936512922       16.5477336235       -6.0505341586  W2        5721            0.0000000000
     17164      5722  TIP3      OH2            21.1361912922       18.6503436235        5.8779558414  W2        5722            0.0000000000
     17165      5722  TIP3      H1             21.6764112922       18.4337436235        6.6378758414  W2        5722            0.0000000000
     17166      5722  TIP3      H2             20.6549912922       17.8449436235        5.6882058414  W2        5722            0.0000000000
     17167      5723  TIP3      OH2            25.7335312922       17.5697836235        7.4983758414  W2        5723            0.0000000000
     17168      5723  TIP3      H1             26.5012512922       17.1108636235        7.8392958414  W2        5723            0.0000000000
     17169      5723  TIP3      H2             25.7121512922       17.3437636235        6.5684958414  W2        5723            0.0000000000
     17170      5724  TIP3      OH2            29.8254912922       17.0778436235      -11.1264441586  W2        5724            0.0000000000
     17171      5724  TIP3      H1             29.1815912922       16.4467036235      -10.8050741586  W2        5724            0.0000000000
     17172      5724  TIP3      H2             30.5873212922       16.5466436235      -11.3580941586  W2        5724            0.0000000000
     17173      5725  TIP3      OH2            32.3104012922       15.9498936235        6.2275258414  W2        5725            0.0000000000
     17174      5725  TIP3      H1             31.9593512922       15.0931936235        6.4705658414  W2        5725            0.0000000000
     17175      5725  TIP3      H2             33.0367212922       16.0925636235        6.8344258414  W2        5725            0.0000000000
     17176      5726  TIP3      OH2            34.4297812922       16.8948336235      -10.8926441586  W2        5726            0.0000000000
     17177      5726  TIP3      H1             34.7128212922       16.1003536235      -10.4399541586  W2        5726            0.0000000000
     17178      5726  TIP3      H2             35.1695712922       17.1279336235      -11.4535341586  W2        5726            0.0000000000
     17179      5727  TIP3      OH2            21.0431412922       12.4607536235        6.8323858414  W2        5727            0.0000000000
     17180      5727  TIP3      H1             21.1871912922       11.5588236235        6.5460558414  W2        5727            0.0000000000
     17181      5727  TIP3      H2             20.2708812922       12.7469636235        6.3446158414  W2        5727            0.0000000000
     17182      5728  TIP3      OH2            25.3845112922       12.8043236235      -11.0351541586  W2        5728            0.0000000000
     17183      5728  TIP3      H1             25.4489212922       12.0102836235      -10.5045141586  W2        5728            0.0000000000
     17184      5728  TIP3      H2             26.0374312922       12.6856036235      -11.7249541586  W2        5728            0.0000000000
     17185      5729  TIP3      OH2            27.6987512922       12.4305636235        6.2650258414  W2        5729            0.0000000000
     17186      5729  TIP3      H1             27.3701312922       12.7013736235        5.4077658414  W2        5729            0.0000000000
     17187      5729  TIP3      H2             27.8505712922       11.4895436235        6.1775258414  W2        5729            0.0000000000
     17188      5730  TIP3      OH2            30.7368512922       13.8514936235      -11.2993541586  W2        5730            0.0000000000
     17189      5730  TIP3      H1             30.4682612922       14.0317036235      -10.3984641586  W2        5730            0.0000000000
     17190      5730  TIP3      H2             30.5304112922       12.9261136235      -11.4307741586  W2        5730            0.0000000000
     17191      5731  TIP3      OH2            33.4332712922       12.3462936235        3.6482558414  W2        5731            0.0000000000
     17192      5731  TIP3      H1             34.1787512922       12.9346636235        3.5286558414  W2        5731            0.0000000000
     17193      5731  TIP3      H2             32.6759512922       12.9282636235        3.7115658414  W2        5731            0.0000000000
     17194      5732  TIP3      OH2            21.8757912922        9.6610836235        6.2523158414  W2        5732            0.0000000000
     17195      5732  TIP3      H1             22.2839112922        8.8037436235        6.1313758414  W2        5732            0.0000000000
     17196      5732  TIP3      H2             21.6155512922        9.6752136235        7.1733458414  W2        5732            0.0000000000
     17197      5733  TIP3      OH2            26.5338912922       10.7769436235       -8.7293541586  W2        5733            0.0000000000
     17198      5733  TIP3      H1             26.0740912922       10.2927736235       -8.0435041586  W2        5733            0.0000000000
     17199      5733  TIP3      H2             26.7887612922       10.1084836235       -9.3653041586  W2        5733            0.0000000000
     17200      5734  TIP3      OH2            25.8228212922        8.6696536235        3.6266058414  W2        5734            0.0000000000
     17201      5734  TIP3      H1             25.2044312922        9.3443136235        3.9070758414  W2        5734            0.0000000000
     17202      5734  TIP3      H2             26.1669412922        8.9910436235        2.7932258414  W2        5734            0.0000000000
     17203      5735  TIP3      OH2            27.6049312922        9.0201236235      -10.4670341586  W2        5735            0.0000000000
     17204      5735  TIP3      H1             27.4244312922        8.8652436235      -11.3942041586  W2        5735            0.0000000000
     17205      5735  TIP3      H2             28.5549812922        9.1279936235      -10.4222441586  W2        5735            0.0000000000
     17206      5736  TIP3      OH2            30.8426412922       11.1411836235        6.9040858414  W2        5736            0.0000000000
     17207      5736  TIP3      H1             31.7957612922       11.2250936235        6.8766858414  W2        5736            0.0000000000
     17208      5736  TIP3      H2             30.6821012922       10.4293636235        7.5235758414  W2        5736            0.0000000000
     17209      5737  TIP3      OH2            26.1621912922        6.0247336235        4.7089158414  W2        5737            0.0000000000
     17210      5737  TIP3      H1             26.3122812922        5.2958636235        4.1068858414  W2        5737            0.0000000000
     17211      5737  TIP3      H2             26.1644312922        6.8019036235        4.1501358414  W2        5737            0.0000000000
     17212      5738  TIP3      OH2            26.5747612922        4.3943136235        2.2016558414  W2        5738            0.0000000000
     17213      5738  TIP3      H1             27.1105112922        4.8459836235        1.5495858414  W2        5738            0.0000000000
     17214      5738  TIP3      H2             25.7227212922        4.2862936235        1.7790658414  W2        5738            0.0000000000
     17215      5739  TIP3      OH2            28.1566012922        9.8339336235        2.4411758414  W2        5739            0.0000000000
     17216      5739  TIP3      H1             28.9070812922        9.6776836235        1.8679558414  W2        5739            0.0000000000
     17217      5739  TIP3      H2             27.8174312922       10.6855936235        2.1657258414  W2        5739            0.0000000000
     17218      5740  TIP3      OH2            32.5722212922        7.6491136235        7.4697058414  W2        5740            0.0000000000
     17219      5740  TIP3      H1             32.7643512922        6.7180536235        7.3581558414  W2        5740            0.0000000000
     17220      5740  TIP3      H2             33.4298512922        8.0740636235        7.4592458414  W2        5740            0.0000000000
     17221      5741  TIP3      OH2            33.8889412922       10.4376336235        5.5469758414  W2        5741            0.0000000000
     17222      5741  TIP3      H1             33.6074412922       11.1470936235        4.9693558414  W2        5741            0.0000000000
     17223      5741  TIP3      H2             34.8313712922       10.3649336235        5.3960958414  W2        5741            0.0000000000
     17224      5742  TIP3      OH2            24.6408212922        7.2230836235        6.6204758414  W2        5742            0.0000000000
     17225      5742  TIP3      H1             23.8737212922        6.6905636235        6.4102358414  W2        5742            0.0000000000
     17226      5742  TIP3      H2             25.3197212922        6.9131236235        6.0211058414  W2        5742            0.0000000000
     17227      5743  TIP3      OH2            27.3803112922        1.8508836235        2.6330158414  W2        5743            0.0000000000
     17228      5743  TIP3      H1             27.2822712922        2.7972036235        2.5276358414  W2        5743            0.0000000000
     17229      5743  TIP3      H2             26.6379312922        1.4782636235        2.1573658414  W2        5743            0.0000000000
     17230      5744  TIP3      OH2            28.6443612922        6.1724236235        6.1968558414  W2        5744            0.0000000000
     17231      5744  TIP3      H1             28.4089012922        5.9530936235        7.0983458414  W2        5744            0.0000000000
     17232      5744  TIP3      H2             27.8610512922        5.9655436235        5.6871058414  W2        5744            0.0000000000
     17233      5745  TIP3      OH2            31.3600212922        5.2997736235        5.2722058414  W2        5745            0.0000000000
     17234      5745  TIP3      H1             30.4125612922        5.3317436235        5.4045358414  W2        5745            0.0000000000
     17235      5745  TIP3      H2             31.6726912922        4.6744836235        5.9260258414  W2        5745            0.0000000000
     17236      5746  TIP3      OH2            32.9941712922        3.9338836235        7.2773958414  W2        5746            0.0000000000
     17237      5746  TIP3      H1             32.8973512922        2.9816136235        7.2715858414  W2        5746            0.0000000000
     17238      5746  TIP3      H2             32.6724812922        4.2025636235        8.1379458414  W2        5746            0.0000000000
     17239      5747  TIP3      OH2            22.8211012922        5.1434636235        6.3249458414  W2        5747            0.0000000000
     17240      5747  TIP3      H1             23.0328412922        4.4370736235        5.7146958414  W2        5747            0.0000000000
     17241      5747  TIP3      H2             22.7098512922        4.7060636235        7.1690658414  W2        5747            0.0000000000
     17242      5748  TIP3      OH2            27.6021212922        1.1446236235        5.3042958414  W2        5748            0.0000000000
     17243      5748  TIP3      H1             28.3139612922        0.5048436235        5.2902058414  W2        5748            0.0000000000
     17244      5748  TIP3      H2             27.5011612922        1.4114536235        4.3906058414  W2        5748            0.0000000000
     17245      5749  TIP3      OH2            27.9558712922        2.8274636235        7.3579258414  W2        5749            0.0000000000
     17246      5749  TIP3      H1             27.8240912922        2.3518436235        6.5377758414  W2        5749            0.0000000000
     17247      5749  TIP3      H2             27.3566112922        3.5718236235        7.3026358414  W2        5749            0.0000000000
     17248      5750  TIP3      OH2            27.5021012922       19.7104936235       -9.4656741586  W2        5750            0.0000000000
     17249      5750  TIP3      H1             28.4351712922       19.8683636235       -9.3218341586  W2        5750            0.0000000000
     17250      5750  TIP3      H2             27.2379812922       20.3857936235      -10.0905241586  W2        5750            0.0000000000
     17251      5751  TIP3      OH2            21.0705912922       14.3468736235       -9.9828641586  W2        5751            0.0000000000
     17252      5751  TIP3      H1             21.9845112922       14.4257636235       -9.7094741586  W2        5751            0.0000000000
     17253      5751  TIP3      H2             21.0779012922       13.6598336235      -10.6493041586  W2        5751            0.0000000000
     17254      5752  TIP3      OH2            19.7196512922       19.7397236235       -4.9054741586  W2        5752            0.0000000000
     17255      5752  TIP3      H1             19.0723612922       19.2778936235       -5.4383541586  W2        5752            0.0000000000
     17256      5752  TIP3      H2             20.0741112922       19.0680536235       -4.3228541586  W2        5752            0.0000000000
     17257      5753  TIP3      OH2            20.5895712922       17.8204236235       -3.1008541586  W2        5753            0.0000000000
     17258      5753  TIP3      H1             20.2552512922       16.9401536235       -2.9288341586  W2        5753            0.0000000000
     17259      5753  TIP3      H2             20.8118112922       18.1659236235       -2.2362941586  W2        5753            0.0000000000
     17260      5754  TIP3      OH2            36.1520712922       13.9869836235        7.4395658414  W2        5754            0.0000000000
     17261      5754  TIP3      H1             35.2861812922       13.8819536235        7.8337958414  W2        5754            0.0000000000
     17262      5754  TIP3      H2             36.5286612922       14.7453136235        7.8860358414  W2        5754            0.0000000000
     17263      5755  TIP3      OH2            36.0929512922       15.9595936235        2.0319858414  W2        5755            0.0000000000
     17264      5755  TIP3      H1             35.4454812922       16.2847436235        2.6575058414  W2        5755            0.0000000000
     17265      5755  TIP3      H2             35.5753512922       15.5193636235        1.3578158414  W2        5755            0.0000000000
     17266      5756  TIP3      OH2            36.4648112922        7.4375036235      -10.2807741586  W2        5756            0.0000000000
     17267      5756  TIP3      H1             36.5612512922        8.1042036235      -10.9608041586  W2        5756            0.0000000000
     17268      5756  TIP3      H2             36.3247712922        6.6221336235      -10.7622241586  W2        5756            0.0000000000
     17269      5757  TIP3      OH2            35.6342812922        8.8177436235       -4.6597441586  W2        5757            0.0000000000
     17270      5757  TIP3      H1             35.4841612922        7.8726036235       -4.6799641586  W2        5757            0.0000000000
     17271      5757  TIP3      H2             35.2807312922        9.0988836235       -3.8158341586  W2        5757            0.0000000000
     17272      5758  TIP3      OH2            20.6695212922       10.8959636235       -0.6493641586  W2        5758            0.0000000000
     17273      5758  TIP3      H1             20.8538112922       10.8141336235       -1.5850741586  W2        5758            0.0000000000
     17274      5758  TIP3      H2             21.5188112922       10.7716636235       -0.2257241586  W2        5758            0.0000000000
     17275      5759  TIP3      OH2            36.4905712922       10.7880736235        4.9790858414  W2        5759            0.0000000000
     17276      5759  TIP3      H1             37.0733012922       10.0533036235        5.1708058414  W2        5759            0.0000000000
     17277      5759  TIP3      H2             37.0545012922       11.5601036235        5.0256658414  W2        5759            0.0000000000
     17278      5760  TIP3      OH2            35.7121912922        4.8454836235      -11.1632241586  W2        5760            0.0000000000
     17279      5760  TIP3      H1             36.3227712922        4.4741636235      -10.5264041586  W2        5760            0.0000000000
     17280      5760  TIP3      H2             34.8753412922        4.4241736235      -10.9672241586  W2        5760            0.0000000000
     17281      5761  TIP3      OH2            35.3447612922        6.4003236235       -6.1972341586  W2        5761            0.0000000000
     17282      5761  TIP3      H1             35.6244712922        5.4933636235       -6.0730641586  W2        5761            0.0000000000
     17283      5761  TIP3      H2             36.1039312922        6.8344736235       -6.5863141586  W2        5761            0.0000000000
     17284      5762  TIP3      OH2            35.9565912922        6.9820636235       -0.7613441586  W2        5762            0.0000000000
     17285      5762  TIP3      H1             36.8893912922        7.1940536235       -0.7957441586  W2        5762            0.0000000000
     17286      5762  TIP3      H2             35.7213412922        7.0832736235        0.1609558414  W2        5762            0.0000000000
     17287      5763  TIP3      OH2            35.9857812922        7.7185936235        2.0145958414  W2        5763            0.0000000000
     17288      5763  TIP3      H1             35.1429112922        7.9866336235        2.3805758414  W2        5763            0.0000000000
     17289      5763  TIP3      H2             36.4282112922        8.5407836235        1.8037058414  W2        5763            0.0000000000
     17290      5764  TIP3      OH2            20.2670012922        6.1664636235        5.4915158414  W2        5764            0.0000000000
     17291      5764  TIP3      H1             21.1864912922        6.0442936235        5.7278258414  W2        5764            0.0000000000
     17292      5764  TIP3      H2             19.8174512922        5.4164336235        5.8808658414  W2        5764            0.0000000000
     17293      5765  TIP3      OH2            35.9582412922        3.6632536235       -6.1490341586  W2        5765            0.0000000000
     17294      5765  TIP3      H1             36.1407412922        3.2144036235       -5.3235341586  W2        5765            0.0000000000
     17295      5765  TIP3      H2             35.3585312922        3.0786936235       -6.6125741586  W2        5765            0.0000000000
     17296      5766  TIP3      OH2            21.4882512922        4.4786236235       -1.6171941586  W2        5766            0.0000000000
     17297      5766  TIP3      H1             21.9334112922        3.6868736235       -1.3152241586  W2        5766            0.0000000000
     17298      5766  TIP3      H2             21.9545512922        5.1951436235       -1.1866341586  W2        5766            0.0000000000
     17299      5767  TIP3      OH2            19.7922812922        7.4779236235       -0.5481741586  W2        5767            0.0000000000
     17300      5767  TIP3      H1             20.2842612922        7.2569736235       -1.3389741586  W2        5767            0.0000000000
     17301      5767  TIP3      H2             20.1543712922        8.3182636235       -0.2672241586  W2        5767            0.0000000000
     17302      5768  TIP3      OH2            20.1059312922        3.7358336235       -6.4939341586  W2        5768            0.0000000000
     17303      5768  TIP3      H1             19.1807712922        3.9444936235       -6.6233841586  W2        5768            0.0000000000
     17304      5768  TIP3      H2             20.5599212922        4.2199136235       -7.1837041586  W2        5768            0.0000000000
     17305      5769  TIP3      OH2            34.8766512922       18.7200036235       -4.5481941586  W2        5769            0.0000000000
     17306      5769  TIP3      H1             35.5289412922       18.3722136235       -5.1562841586  W2        5769            0.0000000000
     17307      5769  TIP3      H2             35.3870312922       19.2083236235       -3.9022241586  W2        5769            0.0000000000
     17308      5770  TIP3      OH2            20.0694712922        2.4737336235        1.8503158414  W2        5770            0.0000000000
     17309      5770  TIP3      H1             19.4045212922        2.2277636235        2.4934058414  W2        5770            0.0000000000
     17310      5770  TIP3      H2             19.6266012922        3.0957736235        1.2731158414  W2        5770            0.0000000000
     17311      5771  TIP3      OH2            22.2614012922       15.6491436235        5.9948958414  W2        5771            0.0000000000
     17312      5771  TIP3      H1             21.4406512922       15.8237936235        5.5343658414  W2        5771            0.0000000000
     17313      5771  TIP3      H2             22.0091812922       15.5756136235        6.9153358414  W2        5771            0.0000000000
     17314      5772  TIP3      OH2            25.2156912922       16.6232636235        2.2532958414  W2        5772            0.0000000000
     17315      5772  TIP3      H1             24.7908012922       17.4331136235        1.9707558414  W2        5772            0.0000000000
     17316      5772  TIP3      H2             26.1199712922       16.7086736235        1.9512758414  W2        5772            0.0000000000
     17317      5773  TIP3      OH2            29.5268312922       18.0222636235        5.2126658414  W2        5773            0.0000000000
     17318      5773  TIP3      H1             29.7115812922       17.6888736235        6.0906958414  W2        5773            0.0000000000
     17319      5773  TIP3      H2             30.3732812922       18.3321236235        4.8905858414  W2        5773            0.0000000000
     17320      5774  TIP3      OH2            31.8718712922       19.3081536235        4.4568058414  W2        5774            0.0000000000
     17321      5774  TIP3      H1             32.5487612922       18.6753836235        4.2167258414  W2        5774            0.0000000000
     17322      5774  TIP3      H2             32.1937512922       19.7092036235        5.2641358414  W2        5774            0.0000000000
     17323      5775  TIP3      OH2            22.6173612922       19.8796536235        2.3008258414  W2        5775            0.0000000000
     17324      5775  TIP3      H1             21.8970012922       20.3197536235        1.8495958414  W2        5775            0.0000000000
     17325      5775  TIP3      H2             22.2517612922       19.6291236235        3.1492258414  W2        5775            0.0000000000
     17326      5776  TIP3      OH2            25.0846212922       19.4800436235        1.3305458414  W2        5776            0.0000000000
     17327      5776  TIP3      H1             24.2198412922       19.5518936235        1.7345558414  W2        5776            0.0000000000
     17328      5776  TIP3      H2             25.0295212922       20.0267736235        0.5467958414  W2        5776            0.0000000000
     17329      5777  TIP3      OH2            29.7951812922       19.3679336235        0.5061458414  W2        5777            0.0000000000
     17330      5777  TIP3      H1             29.3385812922       19.8969036235       -0.1480141586  W2        5777            0.0000000000
     17331      5777  TIP3      H2             29.9579812922       19.9710736235        1.2313758414  W2        5777            0.0000000000
     17332      5778  TIP3      OH2            32.1228112922       18.2458936235        1.4511758414  W2        5778            0.0000000000
     17333      5778  TIP3      H1             31.2181812922       18.4109136235        1.1853858414  W2        5778            0.0000000000
     17334      5778  TIP3      H2             32.5516712922       19.0991136235        1.3855158414  W2        5778            0.0000000000
     17335      5779  TIP3      OH2            34.7270012922       19.8158036235        1.7459558414  W2        5779            0.0000000000
     17336      5779  TIP3      H1             34.5452012922       20.7316936235        1.5354458414  W2        5779            0.0000000000
     17337      5779  TIP3      H2             34.9037812922       19.4055136235        0.8994158414  W2        5779            0.0000000000
     17338      5780  TIP3      OH2            22.0321712922       18.5029036235       -0.7889941586  W2        5780            0.0000000000
     17339      5780  TIP3      H1             22.0137712922       18.0774136235        0.0682358414  W2        5780            0.0000000000
     17340      5780  TIP3      H2             22.8369612922       18.1844036235       -1.1977741586  W2        5780            0.0000000000
     17341      5781  TIP3      OH2            24.1734812922       17.2127736235       -2.1340041586  W2        5781            0.0000000000
     17342      5781  TIP3      H1             23.9545512922       16.2965136235       -1.9644041586  W2        5781            0.0000000000
     17343      5781  TIP3      H2             24.9977012922       17.3528136235       -1.6678641586  W2        5781            0.0000000000
     17344      5782  TIP3      OH2            26.7107312922       17.6827036235       -1.2852041586  W2        5782            0.0000000000
     17345      5782  TIP3      H1             26.9233012922       16.7946036235       -1.5721141586  W2        5782            0.0000000000
     17346      5782  TIP3      H2             26.7752412922       17.6484736235       -0.3308041586  W2        5782            0.0000000000
     17347      5783  TIP3      OH2            30.2191012922        3.3467636235       -2.1408741586  W2        5783            0.0000000000
     17348      5783  TIP3      H1             29.5447812922        2.7173236235       -1.8852941586  W2        5783            0.0000000000
     17349      5783  TIP3      H2             30.7830212922        2.8626536235       -2.7440841586  W2        5783            0.0000000000
     17350      5784  TIP3      OH2            35.3618212922        1.4541636235       -2.0281641586  W2        5784            0.0000000000
     17351      5784  TIP3      H1             35.9655812922        2.0017036235       -2.5300641586  W2        5784            0.0000000000
     17352      5784  TIP3      H2             34.4920212922        1.7732036235       -2.2687541586  W2        5784            0.0000000000
     17353      5785  TIP3      OH2            22.5458512922        1.9807936235       -4.3188841586  W2        5785            0.0000000000
     17354      5785  TIP3      H1             21.7688312922        1.7462836235       -4.8262941586  W2        5785            0.0000000000
     17355      5785  TIP3      H2             23.0762112922        1.1840036235       -4.3100841586  W2        5785            0.0000000000
     17356      5786  TIP3      OH2            21.3821912922        1.7786036235       -8.5152741586  W2        5786            0.0000000000
     17357      5786  TIP3      H1             21.8212612922        2.3896536235       -9.1069241586  W2        5786            0.0000000000
     17358      5786  TIP3      H2             20.7484312922        2.3170136235       -8.0412741586  W2        5786            0.0000000000
     17359      5787  TIP3      OH2            27.1251112922        1.9075036235       -4.5055741586  W2        5787            0.0000000000
     17360      5787  TIP3      H1             27.9994512922        2.2959336235       -4.5351441586  W2        5787            0.0000000000
     17361      5787  TIP3      H2             26.9891912922        1.6922836235       -3.5828541586  W2        5787            0.0000000000
     17362      5788  TIP3      OH2            32.6819512922        1.9374836235       -2.8564041586  W2        5788            0.0000000000
     17363      5788  TIP3      H1             32.7581112922        2.0326436235       -3.8058041586  W2        5788            0.0000000000
     17364      5788  TIP3      H2             32.4068712922        1.0297736235       -2.7274941586  W2        5788            0.0000000000
     17365      5789  TIP3      OH2            34.0352112922        1.9632636235       -7.1639041586  W2        5789            0.0000000000
     17366      5789  TIP3      H1             33.3323212922        2.5781836235       -7.3737641586  W2        5789            0.0000000000
     17367      5789  TIP3      H2             33.5903512922        1.1259336235       -7.0328141586  W2        5789            0.0000000000
     17368      5790  TIP3      OH2            21.2831412922       17.7268236235       -7.6177641586  W2        5790            0.0000000000
     17369      5790  TIP3      H1             20.5981312922       17.6887136235       -8.2852541586  W2        5790            0.0000000000
     17370      5790  TIP3      H2             21.2868612922       18.6395836235       -7.3295541586  W2        5790            0.0000000000
     17371      5791  TIP3      OH2            23.2431012922        3.6947536235      -10.0728641586  W2        5791            0.0000000000
     17372      5791  TIP3      H1             23.7344412922        3.0649936235      -10.6003141586  W2        5791            0.0000000000
     17373      5791  TIP3      H2             23.8667312922        3.9906936235       -9.4097441586  W2        5791            0.0000000000
     17374      5792  TIP3      OH2            28.2691112922        3.9879036235       -7.6158141586  W2        5792            0.0000000000
     17375      5792  TIP3      H1             28.4472412922        3.3412236235       -6.9329541586  W2        5792            0.0000000000
     17376      5792  TIP3      H2             28.2157312922        4.8216736235       -7.1487041586  W2        5792            0.0000000000
     17377      5793  TIP3      OH2            30.1474912922       18.9363136235       -9.2201441586  W2        5793            0.0000000000
     17378      5793  TIP3      H1             31.0135112922       19.3030536235       -9.3983241586  W2        5793            0.0000000000
     17379      5793  TIP3      H2             29.9007712922       18.4971136235      -10.0340641586  W2        5793            0.0000000000
     17380      5794  TIP3      OH2            22.5036512922        2.4949836235        5.1987358414  W2        5794            0.0000000000
     17381      5794  TIP3      H1             22.1374712922        1.7292436235        5.6412058414  W2        5794            0.0000000000
     17382      5794  TIP3      H2             23.4165012922        2.5240036235        5.4852458414  W2        5794            0.0000000000
     17383      5795  TIP3      OH2            24.4767312922        1.8454236235        6.7344458414  W2        5795            0.0000000000
     17384      5795  TIP3      H1             25.3750912922        1.5714436235        6.5497858414  W2        5795            0.0000000000
     17385      5795  TIP3      H2             24.0900412922        1.1030236235        7.1987058414  W2        5795            0.0000000000
     17386      5796  TIP3      OH2            23.1012612922       18.6469036235      -10.5925541586  W2        5796            0.0000000000
     17387      5796  TIP3      H1             22.8337212922       18.9331936235       -9.7192441586  W2        5796            0.0000000000
     17388      5796  TIP3      H2             23.8725212922       18.1008236235      -10.4403041586  W2        5796            0.0000000000
     17389      5797  TIP3      OH2            32.8979612922        1.1779536235        6.9167258414  W2        5797            0.0000000000
     17390      5797  TIP3      H1             32.9746812922        0.7520236235        7.7704958414  W2        5797            0.0000000000
     17391      5797  TIP3      H2             33.7916212922        1.1914236235        6.5740758414  W2        5797            0.0000000000
     17392      5798  TIP3      OH2            36.0740712922       17.2505836235        5.6091458414  W2        5798            0.0000000000
     17393      5798  TIP3      H1             35.2922612922       17.0643836235        5.0892058414  W2        5798            0.0000000000
     17394      5798  TIP3      H2             36.0020612922       18.1800136235        5.8263958414  W2        5798            0.0000000000
     17395      5799  TIP3      OH2           -24.9438887078       29.9930236235       -4.3601341586  W2        5799            0.0000000000
     17396      5799  TIP3      H1            -24.8547787078       30.9368436235       -4.4924241586  W2        5799            0.0000000000
     17397      5799  TIP3      H2            -25.5821287078       29.7176636235       -5.0181941586  W2        5799            0.0000000000
     17398      5800  TIP3      OH2           -26.0107587078       29.2480936235       -0.9413141586  W2        5800            0.0000000000
     17399      5800  TIP3      H1            -26.0490087078       28.6017236235       -0.2363541586  W2        5800            0.0000000000
     17400      5800  TIP3      H2            -26.3331087078       28.7815336235       -1.7124441586  W2        5800            0.0000000000
     17401      5801  TIP3      OH2           -33.6422587078       28.8623036235        0.6516758414  W2        5801            0.0000000000
     17402      5801  TIP3      H1            -33.6010487078       28.2366336235        1.3749158414  W2        5801            0.0000000000
     17403      5801  TIP3      H2            -32.9394887078       29.4861636235        0.8337158414  W2        5801            0.0000000000
     17404      5802  TIP3      OH2           -22.3047387078       32.1871336235       -2.6398041586  W2        5802            0.0000000000
     17405      5802  TIP3      H1            -22.7454687078       31.4667336235       -2.1892441586  W2        5802            0.0000000000
     17406      5802  TIP3      H2            -22.3177687078       32.9078536235       -2.0100341586  W2        5802            0.0000000000
     17407      5803  TIP3      OH2           -32.7189487078       33.3121936235       -0.8134141586  W2        5803            0.0000000000
     17408      5803  TIP3      H1            -33.0884287078       32.5102436235       -1.1829841586  W2        5803            0.0000000000
     17409      5803  TIP3      H2            -31.7778387078       33.1436836235       -0.7670741586  W2        5803            0.0000000000
     17410      5804  TIP3      OH2           -36.1088987078       26.9724536235       -5.4205341586  W2        5804            0.0000000000
     17411      5804  TIP3      H1            -36.5565587078       27.8183236235       -5.4388841586  W2        5804            0.0000000000
     17412      5804  TIP3      H2            -36.6697787078       26.3928736235       -5.9360241586  W2        5804            0.0000000000
     17413      5805  TIP3      OH2           -35.3982887078       29.1344136235       -3.2947341586  W2        5805            0.0000000000
     17414      5805  TIP3      H1            -35.1849387078       28.3645736235       -2.7674341586  W2        5805            0.0000000000
     17415      5805  TIP3      H2            -34.6605287078       29.2240836235       -3.8979741586  W2        5805            0.0000000000
     17416      5806  TIP3      OH2           -27.6213187078       31.6802336235       -0.5352141586  W2        5806            0.0000000000
     17417      5806  TIP3      H1            -27.3175287078       30.9943736235       -1.1298041586  W2        5806            0.0000000000
     17418      5806  TIP3      H2            -26.8999187078       31.7991036235        0.0825858414  W2        5806            0.0000000000
     17419      5807  TIP3      OH2           -18.9583387078       23.2817636235        0.3254058414  W2        5807            0.0000000000
     17420      5807  TIP3      H1            -18.9091187078       23.8918836235        1.0613158414  W2        5807            0.0000000000
     17421      5807  TIP3      H2            -18.5328287078       23.7428536235       -0.3974841586  W2        5807            0.0000000000
     17422      5808  TIP3      OH2           -24.4806187078       26.0744736235       -0.2077341586  W2        5808            0.0000000000
     17423      5808  TIP3      H1            -24.3380287078       25.1281736235       -0.1875741586  W2        5808            0.0000000000
     17424      5808  TIP3      H2            -24.5867187078       26.2814536235       -1.1362441586  W2        5808            0.0000000000
     17425      5809  TIP3      OH2           -31.3257887078       24.1761136235       -2.9352541586  W2        5809            0.0000000000
     17426      5809  TIP3      H1            -31.2826787078       25.0359636235       -3.3536241586  W2        5809            0.0000000000
     17427      5809  TIP3      H2            -31.7833787078       23.6235836235       -3.5689341586  W2        5809            0.0000000000
     17428      5810  TIP3      OH2           -23.6035187078       24.3066736235       -4.5344241586  W2        5810            0.0000000000
     17429      5810  TIP3      H1            -22.9570887078       23.9779936235       -3.9096641586  W2        5810            0.0000000000
     17430      5810  TIP3      H2            -23.0935787078       24.8245736235       -5.1572841586  W2        5810            0.0000000000
     17431      5811  TIP3      OH2           -34.7056387078       26.5726936235       -2.1731141586  W2        5811            0.0000000000
     17432      5811  TIP3      H1            -34.0519787078       26.0228636235       -1.7411041586  W2        5811            0.0000000000
     17433      5811  TIP3      H2            -34.6817087078       26.2985936235       -3.0899141586  W2        5811            0.0000000000
     17434      5812  TIP3      OH2           -29.5491887078       28.1228236235       -2.9579641586  W2        5812            0.0000000000
     17435      5812  TIP3      H1            -28.9330887078       27.5963636235       -2.4485641586  W2        5812            0.0000000000
     17436      5812  TIP3      H2            -30.1353087078       27.4826936235       -3.3616041586  W2        5812            0.0000000000
     17437      5813  TIP3      OH2           -18.5668787078       24.7596836235        2.5613858414  W2        5813            0.0000000000
     17438      5813  TIP3      H1            -19.2554187078       25.4177536235        2.4660458414  W2        5813            0.0000000000
     17439      5813  TIP3      H2            -18.5514187078       24.5624736235        3.4979258414  W2        5813            0.0000000000
     17440      5814  TIP3      OH2           -32.5155987078       23.0939536235        1.1388258414  W2        5814            0.0000000000
     17441      5814  TIP3      H1            -32.7344287078       23.6240136235        0.3724258414  W2        5814            0.0000000000
     17442      5814  TIP3      H2            -33.1835087078       23.3205036235        1.7859658414  W2        5814            0.0000000000
     17443      5815  TIP3      OH2           -25.1466187078       32.5940636235       -5.3172641586  W2        5815            0.0000000000
     17444      5815  TIP3      H1            -25.4421087078       32.2712936235       -6.1685741586  W2        5815            0.0000000000
     17445      5815  TIP3      H2            -25.4708387078       33.4937336235       -5.2760041586  W2        5815            0.0000000000
     17446      5816  TIP3      OH2           -29.9464587078       30.7695236235        1.4261958414  W2        5816            0.0000000000
     17447      5816  TIP3      H1            -30.6865487078       31.3676736235        1.5297158414  W2        5816            0.0000000000
     17448      5816  TIP3      H2            -29.2325087078       31.3234836235        1.1105558414  W2        5816            0.0000000000
     17449      5817  TIP3      OH2           -21.8396787078       23.5976036235       -2.5538341586  W2        5817            0.0000000000
     17450      5817  TIP3      H1            -22.0548787078       22.8319436235       -2.0212341586  W2        5817            0.0000000000
     17451      5817  TIP3      H2            -21.1839387078       24.0700636235       -2.0409841586  W2        5817            0.0000000000
     17452      5818  TIP3      OH2           -32.9218687078       24.9861336235       -0.9089541586  W2        5818            0.0000000000
     17453      5818  TIP3      H1            -32.3082387078       25.6188936235       -0.5357141586  W2        5818            0.0000000000
     17454      5818  TIP3      H2            -32.4097987078       24.5136336235       -1.5652641586  W2        5818            0.0000000000
     17455      5819  TIP3      OH2           -31.5390287078       32.7338236235        2.2133458414  W2        5819            0.0000000000
     17456      5819  TIP3      H1            -31.5442687078       33.6131736235        1.8352758414  W2        5819            0.0000000000
     17457      5819  TIP3      H2            -32.3926187078       32.6502336235        2.6383358414  W2        5819            0.0000000000
     17458      5820  TIP3      OH2           -35.4179387078       32.4046136235       -7.0047241586  W2        5820            0.0000000000
     17459      5820  TIP3      H1            -35.6898487078       32.6337136235       -7.8934341586  W2        5820            0.0000000000
     17460      5820  TIP3      H2            -35.3723687078       33.2424936235       -6.5441941586  W2        5820            0.0000000000
     17461      5821  TIP3      OH2           -21.7929687078       34.0262036235       -0.2918741586  W2        5821            0.0000000000
     17462      5821  TIP3      H1            -22.7345987078       34.0845936235       -0.1301841586  W2        5821            0.0000000000
     17463      5821  TIP3      H2            -21.5163587078       34.9322536235       -0.4289041586  W2        5821            0.0000000000
     17464      5822  TIP3      OH2           -21.4922687078       22.3127336235        1.1255158414  W2        5822            0.0000000000
     17465      5822  TIP3      H1            -22.2283487078       22.9234436235        1.0876458414  W2        5822            0.0000000000
     17466      5822  TIP3      H2            -20.8088687078       22.7276336235        0.5991558414  W2        5822            0.0000000000
     17467      5823  TIP3      OH2           -28.4891287078       20.3994636235       -1.4086841586  W2        5823            0.0000000000
     17468      5823  TIP3      H1            -28.6067087078       19.4510636235       -1.4628541586  W2        5823            0.0000000000
     17469      5823  TIP3      H2            -29.3441187078       20.7320736235       -1.1355741586  W2        5823            0.0000000000
     17470      5824  TIP3      OH2           -23.5408487078       35.8075536235       -3.6667141586  W2        5824            0.0000000000
     17471      5824  TIP3      H1            -23.1156187078       35.1003436235       -4.1517541586  W2        5824            0.0000000000
     17472      5824  TIP3      H2            -23.2238487078       36.6088236235       -4.0834941586  W2        5824            0.0000000000
     17473      5825  TIP3      OH2           -22.3811987078       33.7084036235       -5.1580541586  W2        5825            0.0000000000
     17474      5825  TIP3      H1            -22.6387187078       33.0184136235       -5.7694641586  W2        5825            0.0000000000
     17475      5825  TIP3      H2            -22.3101187078       33.2655236235       -4.3124641586  W2        5825            0.0000000000
     17476      5826  TIP3      OH2           -20.6951787078       32.2750736235        3.3192958414  W2        5826            0.0000000000
     17477      5826  TIP3      H1            -20.5555487078       31.6833236235        2.5799958414  W2        5826            0.0000000000
     17478      5826  TIP3      H2            -20.5278987078       33.1476636235        2.9631758414  W2        5826            0.0000000000
     17479      5827  TIP3      OH2           -26.2226387078       29.2370236235       -6.9081041586  W2        5827            0.0000000000
     17480      5827  TIP3      H1            -26.9340887078       29.7719936235       -7.2600541586  W2        5827            0.0000000000
     17481      5827  TIP3      H2            -25.5316787078       29.2922336235       -7.5682141586  W2        5827            0.0000000000
     17482      5828  TIP3      OH2           -26.1687187078       27.6944536235       -9.8696041586  W2        5828            0.0000000000
     17483      5828  TIP3      H1            -25.4677287078       27.7171436235       -9.2182041586  W2        5828            0.0000000000
     17484      5828  TIP3      H2            -25.8664287078       27.0664236235      -10.5256741586  W2        5828            0.0000000000
     17485      5829  TIP3      OH2           -18.8532487078       28.6148736235        1.3853358414  W2        5829            0.0000000000
     17486      5829  TIP3      H1            -19.5058387078       29.3094336235        1.4744258414  W2        5829            0.0000000000
     17487      5829  TIP3      H2            -18.3882187078       28.8249636235        0.5754958414  W2        5829            0.0000000000
     17488      5830  TIP3      OH2           -22.8168687078       29.4463536235       -5.9565141586  W2        5830            0.0000000000
     17489      5830  TIP3      H1            -23.5487687078       29.6747236235       -5.3834541586  W2        5830            0.0000000000
     17490      5830  TIP3      H2            -22.3696487078       28.7326236235       -5.5017641586  W2        5830            0.0000000000
     17491      5831  TIP3      OH2           -22.9195187078       27.6206136235        3.1111858414  W2        5831            0.0000000000
     17492      5831  TIP3      H1            -22.8396087078       28.3840536235        3.6830358414  W2        5831            0.0000000000
     17493      5831  TIP3      H2            -23.5207487078       27.8998536235        2.4206958414  W2        5831            0.0000000000
     17494      5832  TIP3      OH2           -31.1714987078       30.0769736235       -4.0740141586  W2        5832            0.0000000000
     17495      5832  TIP3      H1            -31.5019787078       29.7063136235       -4.8923141586  W2        5832            0.0000000000
     17496      5832  TIP3      H2            -30.5830887078       29.4063736235       -3.7271841586  W2        5832            0.0000000000
     17497      5833  TIP3      OH2           -29.8047487078       33.5050336235       -1.3927941586  W2        5833            0.0000000000
     17498      5833  TIP3      H1            -29.8996187078       32.9263436235       -2.1493341586  W2        5833            0.0000000000
     17499      5833  TIP3      H2            -29.0753887078       33.1336036235       -0.8965141586  W2        5833            0.0000000000
     17500      5834  TIP3      OH2           -30.8049487078       28.8455336235       -0.4405141586  W2        5834            0.0000000000
     17501      5834  TIP3      H1            -30.2396987078       28.9669536235       -1.2033941586  W2        5834            0.0000000000
     17502      5834  TIP3      H2            -30.4860587078       29.4830336235        0.1983358414  W2        5834            0.0000000000
     17503      5835  TIP3      OH2           -24.4957287078       34.3487236235        0.2935358414  W2        5835            0.0000000000
     17504      5835  TIP3      H1            -24.7360687078       35.0110336235        0.9414558414  W2        5835            0.0000000000
     17505      5835  TIP3      H2            -24.6939087078       33.5142436235        0.7184958414  W2        5835            0.0000000000
     17506      5836  TIP3      OH2           -29.9248787078       33.2448036235        4.2766758414  W2        5836            0.0000000000
     17507      5836  TIP3      H1            -30.2361287078       34.0271236235        4.7319958414  W2        5836            0.0000000000
     17508      5836  TIP3      H2            -30.5748587078       33.0917136235        3.5908758414  W2        5836            0.0000000000
     17509      5837  TIP3      OH2           -23.9459187078       28.6086436235       -8.2713941586  W2        5837            0.0000000000
     17510      5837  TIP3      H1            -23.3663687078       28.7586736235       -7.5245041586  W2        5837            0.0000000000
     17511      5837  TIP3      H2            -23.5319187078       29.0793836235       -8.9947541586  W2        5837            0.0000000000
     17512      5838  TIP3      OH2           -33.0048887078       29.4429136235        3.5052458414  W2        5838            0.0000000000
     17513      5838  TIP3      H1            -32.9345687078       30.0935936235        4.2037458414  W2        5838            0.0000000000
     17514      5838  TIP3      H2            -33.8956687078       29.5456636235        3.1703358414  W2        5838            0.0000000000
     17515      5839  TIP3      OH2           -26.2194287078       35.3454936235       -4.8360841586  W2        5839            0.0000000000
     17516      5839  TIP3      H1            -25.7456687078       35.6411236235       -4.0586641586  W2        5839            0.0000000000
     17517      5839  TIP3      H2            -26.7824987078       36.0836536235       -5.0691241586  W2        5839            0.0000000000
     17518      5840  TIP3      OH2           -31.6852887078       35.3163036235        5.0400558414  W2        5840            0.0000000000
     17519      5840  TIP3      H1            -31.6777587078       35.1802736235        4.0926058414  W2        5840            0.0000000000
     17520      5840  TIP3      H2            -32.6012487078       35.1991136235        5.2920558414  W2        5840            0.0000000000
     17521      5841  TIP3      OH2           -20.2470787078       20.3586836235       -8.4584241586  W2        5841            0.0000000000
     17522      5841  TIP3      H1            -21.1470087078       20.4975836235       -8.1633641586  W2        5841            0.0000000000
     17523      5841  TIP3      H2            -19.9952387078       21.1901436235       -8.8602541586  W2        5841            0.0000000000
     17524      5842  TIP3      OH2           -32.1812287078       29.1464036235       -6.4847341586  W2        5842            0.0000000000
     17525      5842  TIP3      H1            -32.4730987078       29.9145736235       -6.9756041586  W2        5842            0.0000000000
     17526      5842  TIP3      H2            -32.8557087078       28.4870236235       -6.6475941586  W2        5842            0.0000000000
     17527      5843  TIP3      OH2           -19.0579387078       34.7249236235      -10.0820341586  W2        5843            0.0000000000
     17528      5843  TIP3      H1            -18.9845887078       35.6639436235       -9.9115041586  W2        5843            0.0000000000
     17529      5843  TIP3      H2            -18.1524287078       34.4197836235      -10.1383041586  W2        5843            0.0000000000
     17530      5844  TIP3      OH2           -36.0882187078       31.5093236235        2.3302458414  W2        5844            0.0000000000
     17531      5844  TIP3      H1            -36.5893787078       31.4812636235        1.5152158414  W2        5844            0.0000000000
     17532      5844  TIP3      H2            -36.0828487078       30.6036436235        2.6399758414  W2        5844            0.0000000000
     17533      5845  TIP3      OH2           -36.3379487078       34.2897036235       -0.7857341586  W2        5845            0.0000000000
     17534      5845  TIP3      H1            -35.3918887078       34.1454036235       -0.8047841586  W2        5845            0.0000000000
     17535      5845  TIP3      H2            -36.4503187078       35.0739836235       -0.2486141586  W2        5845            0.0000000000
     17536      5846  TIP3      OH2           -18.1400987078       34.9556736235        4.8966358414  W2        5846            0.0000000000
     17537      5846  TIP3      H1            -18.1894187078       34.0004836235        4.8593958414  W2        5846            0.0000000000
     17538      5846  TIP3      H2            -18.9668687078       35.2232036235        5.2980158414  W2        5846            0.0000000000
     17539      5847  TIP3      OH2           -27.1616987078       34.5295936235        3.7727758414  W2        5847            0.0000000000
     17540      5847  TIP3      H1            -27.0742387078       35.3560536235        4.2476858414  W2        5847            0.0000000000
     17541      5847  TIP3      H2            -28.0251887078       34.1999736235        4.0217058414  W2        5847            0.0000000000
     17542      5848  TIP3      OH2           -20.9881187078       26.4489236235        5.3768558414  W2        5848            0.0000000000
     17543      5848  TIP3      H1            -21.3954387078       26.9294836235        4.6561858414  W2        5848            0.0000000000
     17544      5848  TIP3      H2            -20.9475487078       25.5435236235        5.0689358414  W2        5848            0.0000000000
     17545      5849  TIP3      OH2           -33.8391687078       32.8328636235        3.3735258414  W2        5849            0.0000000000
     17546      5849  TIP3      H1            -33.6230387078       32.4714236235        4.2331058414  W2        5849            0.0000000000
     17547      5849  TIP3      H2            -34.6946987078       32.4582436235        3.1638758414  W2        5849            0.0000000000
     17548      5850  TIP3      OH2           -31.2203687078       21.3029136235       -0.6310541586  W2        5850            0.0000000000
     17549      5850  TIP3      H1            -32.0819987078       21.2157336235       -1.0387641586  W2        5850            0.0000000000
     17550      5850  TIP3      H2            -31.2427987078       22.1589236235       -0.2032941586  W2        5850            0.0000000000
     17551      5851  TIP3      OH2           -26.5575887078       21.0249536235        2.7436458414  W2        5851            0.0000000000
     17552      5851  TIP3      H1            -26.1372787078       20.6096636235        3.4967058414  W2        5851            0.0000000000
     17553      5851  TIP3      H2            -27.4906287078       20.8462836235        2.8608458414  W2        5851            0.0000000000
     17554      5852  TIP3      OH2           -23.2310987078       24.7804736235        3.5970958414  W2        5852            0.0000000000
     17555      5852  TIP3      H1            -23.7451487078       24.6546936235        4.3946958414  W2        5852            0.0000000000
     17556      5852  TIP3      H2            -23.3866287078       25.6927836235        3.3527158414  W2        5852            0.0000000000
     17557      5853  TIP3      OH2           -22.4686087078       29.6414736235      -10.6416041586  W2        5853            0.0000000000
     17558      5853  TIP3      H1            -22.4265287078       29.4188636235      -11.5716041586  W2        5853            0.0000000000
     17559      5853  TIP3      H2            -21.6193987078       30.0401836235      -10.4516141586  W2        5853            0.0000000000
     17560      5854  TIP3      OH2           -26.8958587078       23.5172936235       -9.9712741586  W2        5854            0.0000000000
     17561      5854  TIP3      H1            -27.1493787078       23.5364536235       -9.0484641586  W2        5854            0.0000000000
     17562      5854  TIP3      H2            -27.1526487078       22.6458336235      -10.2726541586  W2        5854            0.0000000000
     17563      5855  TIP3      OH2           -31.1293587078       26.2683636235        0.4639658414  W2        5855            0.0000000000
     17564      5855  TIP3      H1            -31.7711487078       26.2280936235        1.1729758414  W2        5855            0.0000000000
     17565      5855  TIP3      H2            -31.0921587078       27.1948336235        0.2262658414  W2        5855            0.0000000000
     17566      5856  TIP3      OH2           -31.1324487078       26.4893736235       -4.6240341586  W2        5856            0.0000000000
     17567      5856  TIP3      H1            -32.0251587078       26.1489836235       -4.6826541586  W2        5856            0.0000000000
     17568      5856  TIP3      H2            -30.6817887078       26.1124636235       -5.3797141586  W2        5856            0.0000000000
     17569      5857  TIP3      OH2           -25.5968987078       26.9054036235       -5.8069541586  W2        5857            0.0000000000
     17570      5857  TIP3      H1            -26.0058687078       27.7202636235       -6.0984741586  W2        5857            0.0000000000
     17571      5857  TIP3      H2            -24.8762787078       26.7654136235       -6.4212441586  W2        5857            0.0000000000
     17572      5858  TIP3      OH2           -26.4947387078       27.0810436235        5.6811158414  W2        5858            0.0000000000
     17573      5858  TIP3      H1            -27.0573587078       26.3762036235        6.0018958414  W2        5858            0.0000000000
     17574      5858  TIP3      H2            -25.6683987078       26.9602336235        6.1488758414  W2        5858            0.0000000000
     17575      5859  TIP3      OH2           -24.5921287078       26.3514436235       -2.9929841586  W2        5859            0.0000000000
     17576      5859  TIP3      H1            -24.7876787078       26.9571236235       -3.7079241586  W2        5859            0.0000000000
     17577      5859  TIP3      H2            -24.4108687078       25.5179636235       -3.4273541586  W2        5859            0.0000000000
     17578      5860  TIP3      OH2           -33.3793087078       26.5887136235        2.3311658414  W2        5860            0.0000000000
     17579      5860  TIP3      H1            -33.4173687078       26.9888736235        3.1998758414  W2        5860            0.0000000000
     17580      5860  TIP3      H2            -33.8701987078       25.7719536235        2.4214558414  W2        5860            0.0000000000
     17581      5861  TIP3      OH2           -30.0135687078       23.9629436235      -10.8702341586  W2        5861            0.0000000000
     17582      5861  TIP3      H1            -30.4444987078       23.5179536235      -10.1404941586  W2        5861            0.0000000000
     17583      5861  TIP3      H2            -30.7316987078       24.3345736235      -11.3824841586  W2        5861            0.0000000000
     17584      5862  TIP3      OH2           -36.7712287078       23.7048936235       -3.8183641586  W2        5862            0.0000000000
     17585      5862  TIP3      H1            -36.1404587078       23.6761036235       -3.0989741586  W2        5862            0.0000000000
     17586      5862  TIP3      H2            -36.3217987078       23.2797636235       -4.5487741586  W2        5862            0.0000000000
     17587      5863  TIP3      OH2           -35.4970187078       24.4510936235       -8.3943241586  W2        5863            0.0000000000
     17588      5863  TIP3      H1            -35.0228487078       25.0420836235       -8.9792341586  W2        5863            0.0000000000
     17589      5863  TIP3      H2            -36.2143787078       24.9813836235       -8.0473141586  W2        5863            0.0000000000
     17590      5864  TIP3      OH2           -25.3282087078       27.9895736235        1.6782558414  W2        5864            0.0000000000
     17591      5864  TIP3      H1            -25.0047287078       27.3585436235        1.0353058414  W2        5864            0.0000000000
     17592      5864  TIP3      H2            -25.7682787078       27.4547936235        2.3389958414  W2        5864            0.0000000000
     17593      5865  TIP3      OH2           -28.5509187078       23.9171236235       -3.5376241586  W2        5865            0.0000000000
     17594      5865  TIP3      H1            -29.4618087078       23.9738036235       -3.2490241586  W2        5865            0.0000000000
     17595      5865  TIP3      H2            -28.0456287078       23.8566736235       -2.7269041586  W2        5865            0.0000000000
     17596      5866  TIP3      OH2           -33.7225787078       25.5457536235       -4.7108641586  W2        5866            0.0000000000
     17597      5866  TIP3      H1            -34.6117787078       25.6453036235       -5.0509041586  W2        5866            0.0000000000
     17598      5866  TIP3      H2            -33.4260887078       24.7040536235       -5.0570741586  W2        5866            0.0000000000
     17599      5867  TIP3      OH2           -30.0693987078       25.5460136235       -7.0544041586  W2        5867            0.0000000000
     17600      5867  TIP3      H1            -29.1378487078       25.6750136235       -6.8760941586  W2        5867            0.0000000000
     17601      5867  TIP3      H2            -30.2843687078       26.2154436235       -7.7039341586  W2        5867            0.0000000000
     17602      5868  TIP3      OH2           -24.1457287078       23.1517536235       -0.2734441586  W2        5868            0.0000000000
     17603      5868  TIP3      H1            -24.8225687078       23.2830636235        0.3905258414  W2        5868            0.0000000000
     17604      5868  TIP3      H2            -24.6312387078       22.9967036235       -1.0836741586  W2        5868            0.0000000000
     17605      5869  TIP3      OH2           -31.3953787078       26.7402336235       -9.4877941586  W2        5869            0.0000000000
     17606      5869  TIP3      H1            -31.9378687078       26.3606136235      -10.1790341586  W2        5869            0.0000000000
     17607      5869  TIP3      H2            -30.5618887078       26.9347036235       -9.9163841586  W2        5869            0.0000000000
     17608      5870  TIP3      OH2           -33.2602387078       31.2974236235        5.6113658414  W2        5870            0.0000000000
     17609      5870  TIP3      H1            -32.5279987078       31.5520136235        6.1728158414  W2        5870            0.0000000000
     17610      5870  TIP3      H2            -34.0403687078       31.5019636235        6.1269058414  W2        5870            0.0000000000
     17611      5871  TIP3      OH2           -27.2309487078       26.7044236235       -1.6506641586  W2        5871            0.0000000000
     17612      5871  TIP3      H1            -26.6666087078       26.1580836235       -2.1977041586  W2        5871            0.0000000000
     17613      5871  TIP3      H2            -27.3786087078       26.1826136235       -0.8619041586  W2        5871            0.0000000000
     17614      5872  TIP3      OH2           -32.2289787078       22.8410336235       -5.2321841586  W2        5872            0.0000000000
     17615      5872  TIP3      H1            -32.5460287078       21.9385636235       -5.2676441586  W2        5872            0.0000000000
     17616      5872  TIP3      H2            -31.4475687078       22.8427736235       -5.7850241586  W2        5872            0.0000000000
     17617      5873  TIP3      OH2           -28.6043587078       25.0930336235        0.7633758414  W2        5873            0.0000000000
     17618      5873  TIP3      H1            -29.4398287078       25.5469836235        0.8736158414  W2        5873            0.0000000000
     17619      5873  TIP3      H2            -28.0802987078       25.3688836235        1.5153658414  W2        5873            0.0000000000
     17620      5874  TIP3      OH2           -28.0600987078       31.3058036235       -7.5519841586  W2        5874            0.0000000000
     17621      5874  TIP3      H1            -28.8049987078       30.7983336235       -7.8741941586  W2        5874            0.0000000000
     17622      5874  TIP3      H2            -28.1943787078       31.3546036235       -6.6055041586  W2        5874            0.0000000000
     17623      5875  TIP3      OH2           -20.9102087078       30.4386236235        1.2347758414  W2        5875            0.0000000000
     17624      5875  TIP3      H1            -20.2683287078       30.8952536235        0.6909958414  W2        5875            0.0000000000
     17625      5875  TIP3      H2            -21.7405187078       30.5518636235        0.7721858414  W2        5875            0.0000000000
     17626      5876  TIP3      OH2           -24.1624187078       24.1197936235       -9.3527241586  W2        5876            0.0000000000
     17627      5876  TIP3      H1            -25.1009987078       24.2313536235       -9.5038441586  W2        5876            0.0000000000
     17628      5876  TIP3      H2            -23.8652087078       24.9764836235       -9.0461541586  W2        5876            0.0000000000
     17629      5877  TIP3      OH2           -26.5408887078       31.4901336235        3.6849258414  W2        5877            0.0000000000
     17630      5877  TIP3      H1            -26.8862787078       31.1083736235        4.4918858414  W2        5877            0.0000000000
     17631      5877  TIP3      H2            -26.7408787078       32.4234936235        3.7562158414  W2        5877            0.0000000000
     17632      5878  TIP3      OH2           -23.4440687078       25.9870636235       -7.6919841586  W2        5878            0.0000000000
     17633      5878  TIP3      H1            -22.5521687078       25.8495636235       -7.3728641586  W2        5878            0.0000000000
     17634      5878  TIP3      H2            -23.3877087078       26.7776736235       -8.2286341586  W2        5878            0.0000000000
     17635      5879  TIP3      OH2           -32.9352687078       30.6008036235       -1.7821941586  W2        5879            0.0000000000
     17636      5879  TIP3      H1            -32.1905487078       30.5983736235       -2.3835441586  W2        5879            0.0000000000
     17637      5879  TIP3      H2            -32.8576087078       29.7771836235       -1.3006841586  W2        5879            0.0000000000
     17638      5880  TIP3      OH2           -25.9346887078       32.7642336235       -8.5265241586  W2        5880            0.0000000000
     17639      5880  TIP3      H1            -26.2298487078       33.5910236235       -8.1450441586  W2        5880            0.0000000000
     17640      5880  TIP3      H2            -26.6376887078       32.1449236235       -8.3303841586  W2        5880            0.0000000000
     17641      5881  TIP3      OH2           -35.9272987078       29.0614936235        3.5326558414  W2        5881            0.0000000000
     17642      5881  TIP3      H1            -35.7044387078       28.6434536235        4.3644058414  W2        5881            0.0000000000
     17643      5881  TIP3      H2            -36.5292887078       28.4489936235        3.1099358414  W2        5881            0.0000000000
     17644      5882  TIP3      OH2           -28.9108087078       28.5784836235        5.7456258414  W2        5882            0.0000000000
     17645      5882  TIP3      H1            -29.2067287078       28.4127836235        4.8505358414  W2        5882            0.0000000000
     17646      5882  TIP3      H2            -27.9792887078       28.3585136235        5.7350158414  W2        5882            0.0000000000
     17647      5883  TIP3      OH2           -24.2905287078       33.9516836235        3.6354258414  W2        5883            0.0000000000
     17648      5883  TIP3      H1            -25.1910987078       34.1349436235        3.3678158414  W2        5883            0.0000000000
     17649      5883  TIP3      H2            -24.2564187078       34.2106136235        4.5563058414  W2        5883            0.0000000000
     17650      5884  TIP3      OH2           -18.5591987078       26.1964736235       -7.9973141586  W2        5884            0.0000000000
     17651      5884  TIP3      H1            -19.1135687078       25.8002736235       -8.6695641586  W2        5884            0.0000000000
     17652      5884  TIP3      H2            -18.4588387078       27.1069936235       -8.2749841586  W2        5884            0.0000000000
     17653      5885  TIP3      OH2           -18.5959987078       31.9966436235        4.8398358414  W2        5885            0.0000000000
     17654      5885  TIP3      H1            -19.4471487078       32.2350236235        4.4724758414  W2        5885            0.0000000000
     17655      5885  TIP3      H2            -18.0056587078       31.9799636235        4.0865458414  W2        5885            0.0000000000
     17656      5886  TIP3      OH2           -20.2640287078       34.9825136235       -7.5321041586  W2        5886            0.0000000000
     17657      5886  TIP3      H1            -20.6369187078       34.1568936235       -7.2230441586  W2        5886            0.0000000000
     17658      5886  TIP3      H2            -19.9866787078       34.7994536235       -8.4297641586  W2        5886            0.0000000000
     17659      5887  TIP3      OH2           -23.1036387078       29.7904636235       -0.5109141586  W2        5887            0.0000000000
     17660      5887  TIP3      H1            -24.0319487078       29.5586536235       -0.5379841586  W2        5887            0.0000000000
     17661      5887  TIP3      H2            -22.6525287078       29.0134436235       -0.8410341586  W2        5887            0.0000000000
     17662      5888  TIP3      OH2           -30.5603287078       34.1186236235       -4.3780441586  W2        5888            0.0000000000
     17663      5888  TIP3      H1            -30.0331087078       34.8920636235       -4.5781641586  W2        5888            0.0000000000
     17664      5888  TIP3      H2            -31.4404787078       34.3435436235       -4.6796441586  W2        5888            0.0000000000
     17665      5889  TIP3      OH2           -34.8055587078       28.9810336235       -9.7908041586  W2        5889            0.0000000000
     17666      5889  TIP3      H1            -34.1895687078       29.6077536235       -9.4113241586  W2        5889            0.0000000000
     17667      5889  TIP3      H2            -35.6672987078       29.2970136235       -9.5191541586  W2        5889            0.0000000000
     17668      5890  TIP3      OH2           -29.1330987078       31.7816136235       -4.8016141586  W2        5890            0.0000000000
     17669      5890  TIP3      H1            -29.3740987078       32.7070536235       -4.7600841586  W2        5890            0.0000000000
     17670      5890  TIP3      H2            -29.8737387078       31.3227436235       -4.4052241586  W2        5890            0.0000000000
     17671      5891  TIP3      OH2           -28.6184387078       35.9309736235        1.5134958414  W2        5891            0.0000000000
     17672      5891  TIP3      H1            -28.2559687078       36.7855336235        1.2799358414  W2        5891            0.0000000000
     17673      5891  TIP3      H2            -28.0869187078       35.6391336235        2.2541258414  W2        5891            0.0000000000
     17674      5892  TIP3      OH2           -30.4500187078       36.8033736235       -5.2563941586  W2        5892            0.0000000000
     17675      5892  TIP3      H1            -31.3999687078       36.9091136235       -5.2050641586  W2        5892            0.0000000000
     17676      5892  TIP3      H2            -30.0982087078       37.6241136235       -4.9116441586  W2        5892            0.0000000000
     17677      5893  TIP3      OH2           -25.0743587078       32.0300436235        1.2140558414  W2        5893            0.0000000000
     17678      5893  TIP3      H1            -25.5002287078       31.8022136235        2.0404558414  W2        5893            0.0000000000
     17679      5893  TIP3      H2            -24.4937787078       31.2912236235        1.0315858414  W2        5893            0.0000000000
     17680      5894  TIP3      OH2           -22.8714687078       32.9590936235       -9.7120441586  W2        5894            0.0000000000
     17681      5894  TIP3      H1            -22.5181587078       32.5790736235       -8.9076941586  W2        5894            0.0000000000
     17682      5894  TIP3      H2            -23.8201187078       32.8655736235       -9.6251141586  W2        5894            0.0000000000
     17683      5895  TIP3      OH2           -22.4159387078       36.5819936235        3.6835358414  W2        5895            0.0000000000
     17684      5895  TIP3      H1            -23.0176187078       36.0262836235        3.1881658414  W2        5895            0.0000000000
     17685      5895  TIP3      H2            -22.1345687078       37.2489736235        3.0572758414  W2        5895            0.0000000000
     17686      5896  TIP3      OH2           -34.2933487078       23.8147636235        3.0907958414  W2        5896            0.0000000000
     17687      5896  TIP3      H1            -35.1861187078       24.1533036235        3.0231958414  W2        5896            0.0000000000
     17688      5896  TIP3      H2            -34.3920687078       22.9593736235        3.5088758414  W2        5896            0.0000000000
     17689      5897  TIP3      OH2           -22.0055387078       31.6312936235       -7.4852541586  W2        5897            0.0000000000
     17690      5897  TIP3      H1            -22.2827787078       30.9032236235       -6.9291441586  W2        5897            0.0000000000
     17691      5897  TIP3      H2            -21.0782387078       31.7504936235       -7.2799941586  W2        5897            0.0000000000
     17692      5898  TIP3      OH2           -34.6421487078       35.6192036235        1.5257358414  W2        5898            0.0000000000
     17693      5898  TIP3      H1            -34.4251187078       34.6874436235        1.4947058414  W2        5898            0.0000000000
     17694      5898  TIP3      H2            -34.3957987078       35.8937036235        2.4090158414  W2        5898            0.0000000000
     17695      5899  TIP3      OH2           -28.7806887078       34.0707036235      -11.2650441586  W2        5899            0.0000000000
     17696      5899  TIP3      H1            -28.5417087078       33.3225136235      -11.8121541586  W2        5899            0.0000000000
     17697      5899  TIP3      H2            -29.0495587078       33.6828736235      -10.4322641586  W2        5899            0.0000000000
     17698      5900  TIP3      OH2           -29.8436287078       33.6410836235       -8.8087841586  W2        5900            0.0000000000
     17699      5900  TIP3      H1            -29.6968287078       33.1210636235       -8.0186941586  W2        5900            0.0000000000
     17700      5900  TIP3      H2            -29.8464587078       34.5478436235       -8.5021941586  W2        5900            0.0000000000
     17701      5901  TIP3      OH2           -33.3905187078       30.8934136235       -8.2982441586  W2        5901            0.0000000000
     17702      5901  TIP3      H1            -34.0765887078       31.2456636235       -7.7312741586  W2        5901            0.0000000000
     17703      5901  TIP3      H2            -32.8677287078       31.6563736235       -8.5448141586  W2        5901            0.0000000000
     17704      5902  TIP3      OH2           -25.5590087078       23.5557936235        1.9806558414  W2        5902            0.0000000000
     17705      5902  TIP3      H1            -24.8602187078       23.6296636235        2.6306258414  W2        5902            0.0000000000
     17706      5902  TIP3      H2            -25.9398687078       22.6912936235        2.1349458414  W2        5902            0.0000000000
     17707      5903  TIP3      OH2           -24.7745187078       23.2079636235       -6.9221141586  W2        5903            0.0000000000
     17708      5903  TIP3      H1            -24.5546887078       23.6795036235       -7.7255741586  W2        5903            0.0000000000
     17709      5903  TIP3      H2            -24.2161187078       23.6022236235       -6.2520541586  W2        5903            0.0000000000
     17710      5904  TIP3      OH2           -27.1059087078       35.3384436235       -8.0593641586  W2        5904            0.0000000000
     17711      5904  TIP3      H1            -27.9222987078       35.8354136235       -8.0069341586  W2        5904            0.0000000000
     17712      5904  TIP3      H2            -26.5762787078       35.8137936235       -8.6994841586  W2        5904            0.0000000000
     17713      5905  TIP3      OH2           -27.5745287078       24.9358436235       -6.0872741586  W2        5905            0.0000000000
     17714      5905  TIP3      H1            -26.7622687078       25.4401636235       -6.0411041586  W2        5905            0.0000000000
     17715      5905  TIP3      H2            -27.8192287078       24.7908136235       -5.1733141586  W2        5905            0.0000000000
     17716      5906  TIP3      OH2           -27.0388887078       25.9221136235        3.0973858414  W2        5906            0.0000000000
     17717      5906  TIP3      H1            -26.9198587078       26.4956536235        3.8544258414  W2        5906            0.0000000000
     17718      5906  TIP3      H2            -26.3834287078       25.2340536235        3.2121658414  W2        5906            0.0000000000
     17719      5907  TIP3      OH2           -26.6908587078       22.0171436235       -5.1491641586  W2        5907            0.0000000000
     17720      5907  TIP3      H1            -27.0375087078       22.6342036235       -4.5047341586  W2        5907            0.0000000000
     17721      5907  TIP3      H2            -26.0321687078       22.5177136235       -5.6306141586  W2        5907            0.0000000000
     17722      5908  TIP3      OH2           -29.7675987078       36.3821636235       -8.0776741586  W2        5908            0.0000000000
     17723      5908  TIP3      H1            -29.6067287078       37.1819136235       -8.5784141586  W2        5908            0.0000000000
     17724      5908  TIP3      H2            -29.9648187078       36.6887636235       -7.1926141586  W2        5908            0.0000000000
     17725      5909  TIP3      OH2           -31.0331587078       23.0800836235       -8.4619141586  W2        5909            0.0000000000
     17726      5909  TIP3      H1            -31.1166787078       23.9683936235       -8.1152741586  W2        5909            0.0000000000
     17727      5909  TIP3      H2            -30.1431287078       22.8147536235       -8.2302341586  W2        5909            0.0000000000
     17728      5910  TIP3      OH2           -20.8343087078       23.8291436235        3.9323558414  W2        5910            0.0000000000
     17729      5910  TIP3      H1            -21.7507287078       24.0913136235        3.8447258414  W2        5910            0.0000000000
     17730      5910  TIP3      H2            -20.4988087078       23.8260436235        3.0358858414  W2        5910            0.0000000000
     17731      5911  TIP3      OH2           -22.2322087078       27.5792436235       -1.9719141586  W2        5911            0.0000000000
     17732      5911  TIP3      H1            -23.0297687078       27.1642636235       -2.3004141586  W2        5911            0.0000000000
     17733      5911  TIP3      H2            -21.7870987078       26.8886136235       -1.4808641586  W2        5911            0.0000000000
     17734      5912  TIP3      OH2           -32.7746287078       33.5073036235       -9.4014641586  W2        5912            0.0000000000
     17735      5912  TIP3      H1            -32.1824787078       34.2067836235       -9.1252241586  W2        5912            0.0000000000
     17736      5912  TIP3      H2            -32.3153287078       33.0742536235      -10.1210041586  W2        5912            0.0000000000
     17737      5913  TIP3      OH2           -34.4587087078       26.1716036235      -10.2855241586  W2        5913            0.0000000000
     17738      5913  TIP3      H1            -34.5034487078       27.1109136235      -10.1068241586  W2        5913            0.0000000000
     17739      5913  TIP3      H2            -35.3463887078       25.9360936235      -10.5553141586  W2        5913            0.0000000000
     17740      5914  TIP3      OH2           -33.6505087078       20.9532636235       -1.6124241586  W2        5914            0.0000000000
     17741      5914  TIP3      H1            -33.8795287078       21.0125136235       -2.5399241586  W2        5914            0.0000000000
     17742      5914  TIP3      H2            -34.0931687078       20.1618136235       -1.3060141586  W2        5914            0.0000000000
     17743      5915  TIP3      OH2           -34.7201787078       34.8939736235       -5.4518441586  W2        5915            0.0000000000
     17744      5915  TIP3      H1            -35.5523187078       35.3662436235       -5.4247041586  W2        5915            0.0000000000
     17745      5915  TIP3      H2            -34.1743487078       35.4037336235       -6.0505341586  W2        5915            0.0000000000
     17746      5916  TIP3      OH2           -30.8344687078       36.4257836235        7.4983758414  W2        5916            0.0000000000
     17747      5916  TIP3      H1            -30.0667487078       35.9668636235        7.8392958414  W2        5916            0.0000000000
     17748      5916  TIP3      H2            -30.8558487078       36.1997636235        6.5684958414  W2        5916            0.0000000000
     17749      5917  TIP3      OH2           -26.7425087078       35.9338436235      -11.1264441586  W2        5917            0.0000000000
     17750      5917  TIP3      H1            -27.3864087078       35.3027036235      -10.8050741586  W2        5917            0.0000000000
     17751      5917  TIP3      H2            -25.9806787078       35.4026436235      -11.3580941586  W2        5917            0.0000000000
     17752      5918  TIP3      OH2           -24.2575987078       34.8058936235        6.2275258414  W2        5918            0.0000000000
     17753      5918  TIP3      H1            -24.6086487078       33.9491936235        6.4705658414  W2        5918            0.0000000000
     17754      5918  TIP3      H2            -23.5312787078       34.9485636235        6.8344258414  W2        5918            0.0000000000
     17755      5919  TIP3      OH2           -22.1382187078       35.7508336235      -10.8926441586  W2        5919            0.0000000000
     17756      5919  TIP3      H1            -21.8551787078       34.9563536235      -10.4399541586  W2        5919            0.0000000000
     17757      5919  TIP3      H2            -21.3984287078       35.9839336235      -11.4535341586  W2        5919            0.0000000000
     17758      5920  TIP3      OH2           -35.5248587078       31.3167536235        6.8323858414  W2        5920            0.0000000000
     17759      5920  TIP3      H1            -35.3808087078       30.4148236235        6.5460558414  W2        5920            0.0000000000
     17760      5920  TIP3      H2            -36.2971187078       31.6029636235        6.3446158414  W2        5920            0.0000000000
     17761      5921  TIP3      OH2           -31.1834887078       31.6603236235      -11.0351541586  W2        5921            0.0000000000
     17762      5921  TIP3      H1            -31.1190787078       30.8662836235      -10.5045141586  W2        5921            0.0000000000
     17763      5921  TIP3      H2            -30.5305687078       31.5416036235      -11.7249541586  W2        5921            0.0000000000
     17764      5922  TIP3      OH2           -28.8692487078       31.2865636235        6.2650258414  W2        5922            0.0000000000
     17765      5922  TIP3      H1            -29.1978687078       31.5573736235        5.4077658414  W2        5922            0.0000000000
     17766      5922  TIP3      H2            -28.7174287078       30.3455436235        6.1775258414  W2        5922            0.0000000000
     17767      5923  TIP3      OH2           -25.8311487078       32.7074936235      -11.2993541586  W2        5923            0.0000000000
     17768      5923  TIP3      H1            -26.0997387078       32.8877036235      -10.3984641586  W2        5923            0.0000000000
     17769      5923  TIP3      H2            -26.0375887078       31.7821136235      -11.4307741586  W2        5923            0.0000000000
     17770      5924  TIP3      OH2           -23.1347287078       31.2022936235        3.6482558414  W2        5924            0.0000000000
     17771      5924  TIP3      H1            -22.3892487078       31.7906636235        3.5286558414  W2        5924            0.0000000000
     17772      5924  TIP3      H2            -23.8920487078       31.7842636235        3.7115658414  W2        5924            0.0000000000
     17773      5925  TIP3      OH2           -34.6922087078       28.5170836235        6.2523158414  W2        5925            0.0000000000
     17774      5925  TIP3      H1            -34.2840887078       27.6597436235        6.1313758414  W2        5925            0.0000000000
     17775      5925  TIP3      H2            -34.9524487078       28.5312136235        7.1733458414  W2        5925            0.0000000000
     17776      5926  TIP3      OH2           -30.0341087078       29.6329436235       -8.7293541586  W2        5926            0.0000000000
     17777      5926  TIP3      H1            -30.4939087078       29.1487736235       -8.0435041586  W2        5926            0.0000000000
     17778      5926  TIP3      H2            -29.7792387078       28.9644836235       -9.3653041586  W2        5926            0.0000000000
     17779      5927  TIP3      OH2           -30.7451787078       27.5256536235        3.6266058414  W2        5927            0.0000000000
     17780      5927  TIP3      H1            -31.3635687078       28.2003136235        3.9070758414  W2        5927            0.0000000000
     17781      5927  TIP3      H2            -30.4010587078       27.8470436235        2.7932258414  W2        5927            0.0000000000
     17782      5928  TIP3      OH2           -28.9630687078       27.8761236235      -10.4670341586  W2        5928            0.0000000000
     17783      5928  TIP3      H1            -29.1435687078       27.7212436235      -11.3942041586  W2        5928            0.0000000000
     17784      5928  TIP3      H2            -28.0130187078       27.9839936235      -10.4222441586  W2        5928            0.0000000000
     17785      5929  TIP3      OH2           -25.7253587078       29.9971836235        6.9040858414  W2        5929            0.0000000000
     17786      5929  TIP3      H1            -24.7722387078       30.0810936235        6.8766858414  W2        5929            0.0000000000
     17787      5929  TIP3      H2            -25.8858987078       29.2853636235        7.5235758414  W2        5929            0.0000000000
     17788      5930  TIP3      OH2           -19.5732387078       30.2305436235      -11.0212241586  W2        5930            0.0000000000
     17789      5930  TIP3      H1            -19.8467587078       29.8060936235      -11.8343941586  W2        5930            0.0000000000
     17790      5930  TIP3      H2            -19.5338287078       31.1619936235      -11.2381841586  W2        5930            0.0000000000
     17791      5931  TIP3      OH2           -30.4058087078       24.8807336235        4.7089158414  W2        5931            0.0000000000
     17792      5931  TIP3      H1            -30.2557187078       24.1518636235        4.1068858414  W2        5931            0.0000000000
     17793      5931  TIP3      H2            -30.4035687078       25.6579036235        4.1501358414  W2        5931            0.0000000000
     17794      5932  TIP3      OH2           -29.9932387078       23.2503136235        2.2016558414  W2        5932            0.0000000000
     17795      5932  TIP3      H1            -29.4574887078       23.7019836235        1.5495858414  W2        5932            0.0000000000
     17796      5932  TIP3      H2            -30.8452787078       23.1422936235        1.7790658414  W2        5932            0.0000000000
     17797      5933  TIP3      OH2           -28.4113987078       28.6899336235        2.4411758414  W2        5933            0.0000000000
     17798      5933  TIP3      H1            -27.6609187078       28.5336836235        1.8679558414  W2        5933            0.0000000000
     17799      5933  TIP3      H2            -28.7505687078       29.5415936235        2.1657258414  W2        5933            0.0000000000
     17800      5934  TIP3      OH2           -23.9957787078       26.5051136235        7.4697058414  W2        5934            0.0000000000
     17801      5934  TIP3      H1            -23.8036487078       25.5740536235        7.3581558414  W2        5934            0.0000000000
     17802      5934  TIP3      H2            -23.1381487078       26.9300636235        7.4592458414  W2        5934            0.0000000000
     17803      5935  TIP3      OH2           -22.6790587078       29.2936336235        5.5469758414  W2        5935            0.0000000000
     17804      5935  TIP3      H1            -22.9605587078       30.0030936235        4.9693558414  W2        5935            0.0000000000
     17805      5935  TIP3      H2            -21.7366287078       29.2209336235        5.3960958414  W2        5935            0.0000000000
     17806      5936  TIP3      OH2           -31.9271787078       26.0790836235        6.6204758414  W2        5936            0.0000000000
     17807      5936  TIP3      H1            -32.6942787078       25.5465636235        6.4102358414  W2        5936            0.0000000000
     17808      5936  TIP3      H2            -31.2482787078       25.7691236235        6.0211058414  W2        5936            0.0000000000
     17809      5937  TIP3      OH2           -29.1876887078       20.7068836235        2.6330158414  W2        5937            0.0000000000
     17810      5937  TIP3      H1            -29.2857287078       21.6532036235        2.5276358414  W2        5937            0.0000000000
     17811      5937  TIP3      H2            -29.9300687078       20.3342636235        2.1573658414  W2        5937            0.0000000000
     17812      5938  TIP3      OH2           -27.9236387078       25.0284236235        6.1968558414  W2        5938            0.0000000000
     17813      5938  TIP3      H1            -28.1590987078       24.8090936235        7.0983458414  W2        5938            0.0000000000
     17814      5938  TIP3      H2            -28.7069487078       24.8215436235        5.6871058414  W2        5938            0.0000000000
     17815      5939  TIP3      OH2           -25.2079787078       24.1557736235        5.2722058414  W2        5939            0.0000000000
     17816      5939  TIP3      H1            -26.1554387078       24.1877436235        5.4045358414  W2        5939            0.0000000000
     17817      5939  TIP3      H2            -24.8953087078       23.5304836235        5.9260258414  W2        5939            0.0000000000
     17818      5940  TIP3      OH2           -23.5738287078       22.7898836235        7.2773958414  W2        5940            0.0000000000
     17819      5940  TIP3      H1            -23.6706487078       21.8376136235        7.2715858414  W2        5940            0.0000000000
     17820      5940  TIP3      H2            -23.8955187078       23.0585636235        8.1379458414  W2        5940            0.0000000000
     17821      5941  TIP3      OH2           -33.7468987078       23.9994636235        6.3249458414  W2        5941            0.0000000000
     17822      5941  TIP3      H1            -33.5351587078       23.2930736235        5.7146958414  W2        5941            0.0000000000
     17823      5941  TIP3      H2            -33.8581487078       23.5620636235        7.1690658414  W2        5941            0.0000000000
     17824      5942  TIP3      OH2           -28.9658787078       20.0006236235        5.3042958414  W2        5942            0.0000000000
     17825      5942  TIP3      H1            -28.2540387078       19.3608436235        5.2902058414  W2        5942            0.0000000000
     17826      5942  TIP3      H2            -29.0668387078       20.2674536235        4.3906058414  W2        5942            0.0000000000
     17827      5943  TIP3      OH2           -28.6121287078       21.6834636235        7.3579258414  W2        5943            0.0000000000
     17828      5943  TIP3      H1            -28.7439087078       21.2078436235        6.5377758414  W2        5943            0.0000000000
     17829      5943  TIP3      H2            -29.2113887078       22.4278236235        7.3026358414  W2        5943            0.0000000000
     17830      5944  TIP3      OH2           -35.4974087078       33.2028736235       -9.9828641586  W2        5944            0.0000000000
     17831      5944  TIP3      H1            -34.5834887078       33.2817636235       -9.7094741586  W2        5944            0.0000000000
     17832      5944  TIP3      H2            -35.4900987078       32.5158336235      -10.6493041586  W2        5944            0.0000000000
     17833      5945  TIP3      OH2           -35.9784287078       36.6764236235       -3.1008541586  W2        5945            0.0000000000
     17834      5945  TIP3      H1            -36.3127487078       35.7961536235       -2.9288341586  W2        5945            0.0000000000
     17835      5945  TIP3      H2            -35.7561887078       37.0219236235       -2.2362941586  W2        5945            0.0000000000
     17836      5946  TIP3      OH2           -20.4159287078       32.8429836235        7.4395658414  W2        5946            0.0000000000
     17837      5946  TIP3      H1            -21.2818187078       32.7379536235        7.8337958414  W2        5946            0.0000000000
     17838      5946  TIP3      H2            -20.0393387078       33.6013136235        7.8860358414  W2        5946            0.0000000000
     17839      5947  TIP3      OH2           -19.1149587078       31.0993536235       -7.0461841586  W2        5947            0.0000000000
     17840      5947  TIP3      H1            -18.2648187078       31.5204436235       -6.9190241586  W2        5947            0.0000000000
     17841      5947  TIP3      H2            -19.1094487078       30.3593636235       -6.4390441586  W2        5947            0.0000000000
     17842      5948  TIP3      OH2           -18.7203987078       29.1530936235       -5.2226141586  W2        5948            0.0000000000
     17843      5948  TIP3      H1            -19.4469387078       28.6733536235       -4.8248541586  W2        5948            0.0000000000
     17844      5948  TIP3      H2            -18.1390687078       29.3585636235       -4.4904541586  W2        5948            0.0000000000
     17845      5949  TIP3      OH2           -18.9612787078       31.9378436235       -0.2748541586  W2        5949            0.0000000000
     17846      5949  TIP3      H1            -18.1278587078       31.5598436235       -0.5554941586  W2        5949            0.0000000000
     17847      5949  TIP3      H2            -18.8492487078       32.8809636235       -0.3939441586  W2        5949            0.0000000000
     17848      5950  TIP3      OH2           -20.4750487078       34.8155936235        2.0319858414  W2        5950            0.0000000000
     17849      5950  TIP3      H1            -21.1225187078       35.1407436235        2.6575058414  W2        5950            0.0000000000
     17850      5950  TIP3      H2            -20.9926487078       34.3753636235        1.3578158414  W2        5950            0.0000000000
     17851      5951  TIP3      OH2           -18.4520887078       29.0539436235       -8.8314841586  W2        5951            0.0000000000
     17852      5951  TIP3      H1            -18.9739787078       29.4103536235       -9.5503941586  W2        5951            0.0000000000
     17853      5951  TIP3      H2            -18.4851687078       29.7287236235       -8.1533941586  W2        5951            0.0000000000
     17854      5952  TIP3      OH2           -20.1031887078       26.2935036235      -10.2807741586  W2        5952            0.0000000000
     17855      5952  TIP3      H1            -20.0067487078       26.9602036235      -10.9608041586  W2        5952            0.0000000000
     17856      5952  TIP3      H2            -20.2432287078       25.4781336235      -10.7622241586  W2        5952            0.0000000000
     17857      5953  TIP3      OH2           -20.9337187078       27.6737436235       -4.6597441586  W2        5953            0.0000000000
     17858      5953  TIP3      H1            -21.0838387078       26.7286036235       -4.6799641586  W2        5953            0.0000000000
     17859      5953  TIP3      H2            -21.2872687078       27.9548836235       -3.8158341586  W2        5953            0.0000000000
     17860      5954  TIP3      OH2           -35.8984787078       29.7519636235       -0.6493641586  W2        5954            0.0000000000
     17861      5954  TIP3      H1            -35.7141887078       29.6701336235       -1.5850741586  W2        5954            0.0000000000
     17862      5954  TIP3      H2            -35.0491887078       29.6276636235       -0.2257241586  W2        5954            0.0000000000
     17863      5955  TIP3      OH2           -20.0774287078       29.6440736235        4.9790858414  W2        5955            0.0000000000
     17864      5955  TIP3      H1            -19.4946987078       28.9093036235        5.1708058414  W2        5955            0.0000000000
     17865      5955  TIP3      H2            -19.5134987078       30.4161036235        5.0256658414  W2        5955            0.0000000000
     17866      5956  TIP3      OH2           -18.5807187078       27.5466536235        5.6636258414  W2        5956            0.0000000000
     17867      5956  TIP3      H1            -19.4440487078       27.1678636235        5.4980958414  W2        5956            0.0000000000
     17868      5956  TIP3      H2            -17.9763487078       26.8081336235        5.5892058414  W2        5956            0.0000000000
     17869      5957  TIP3      OH2           -20.8558087078       23.7014836235      -11.1632241586  W2        5957            0.0000000000
     17870      5957  TIP3      H1            -20.2452287078       23.3301636235      -10.5264041586  W2        5957            0.0000000000
     17871      5957  TIP3      H2            -21.6926587078       23.2801736235      -10.9672241586  W2        5957            0.0000000000
     17872      5958  TIP3      OH2           -21.2232387078       25.2563236235       -6.1972341586  W2        5958            0.0000000000
     17873      5958  TIP3      H1            -20.9435287078       24.3493636235       -6.0730641586  W2        5958            0.0000000000
     17874      5958  TIP3      H2            -20.4640687078       25.6904736235       -6.5863141586  W2        5958            0.0000000000
     17875      5959  TIP3      OH2           -20.6114087078       25.8380636235       -0.7613441586  W2        5959            0.0000000000
     17876      5959  TIP3      H1            -19.6786087078       26.0500536235       -0.7957441586  W2        5959            0.0000000000
     17877      5959  TIP3      H2            -20.8466587078       25.9392736235        0.1609558414  W2        5959            0.0000000000
     17878      5960  TIP3      OH2           -20.5822187078       26.5745936235        2.0145958414  W2        5960            0.0000000000
     17879      5960  TIP3      H1            -21.4250887078       26.8426336235        2.3805758414  W2        5960            0.0000000000
     17880      5960  TIP3      H2            -20.1397887078       27.3967836235        1.8037058414  W2        5960            0.0000000000
     17881      5961  TIP3      OH2           -36.3009987078       25.0224636235        5.4915158414  W2        5961            0.0000000000
     17882      5961  TIP3      H1            -35.3815087078       24.9002936235        5.7278258414  W2        5961            0.0000000000
     17883      5961  TIP3      H2            -36.7505487078       24.2724336235        5.8808658414  W2        5961            0.0000000000
     17884      5962  TIP3      OH2           -18.2990587078       20.5546136235        7.3680958414  W2        5962            0.0000000000
     17885      5962  TIP3      H1            -17.9493587078       19.9009636235        6.7625658414  W2        5962            0.0000000000
     17886      5962  TIP3      H2            -18.1521087078       21.3920236235        6.9283558414  W2        5962            0.0000000000
     17887      5963  TIP3      OH2           -20.6097587078       22.5192536235       -6.1490341586  W2        5963            0.0000000000
     17888      5963  TIP3      H1            -20.4272587078       22.0704036235       -5.3235341586  W2        5963            0.0000000000
     17889      5963  TIP3      H2            -21.2094687078       21.9346936235       -6.6125741586  W2        5963            0.0000000000
     17890      5964  TIP3      OH2           -35.0797487078       23.3346236235       -1.6171941586  W2        5964            0.0000000000
     17891      5964  TIP3      H1            -34.6345887078       22.5428736235       -1.3152241586  W2        5964            0.0000000000
     17892      5964  TIP3      H2            -34.6134487078       24.0511436235       -1.1866341586  W2        5964            0.0000000000
     17893      5965  TIP3      OH2           -36.7757187078       26.3339236235       -0.5481741586  W2        5965            0.0000000000
     17894      5965  TIP3      H1            -36.2837387078       26.1129736235       -1.3389741586  W2        5965            0.0000000000
     17895      5965  TIP3      H2            -36.4136287078       27.1742636235       -0.2672241586  W2        5965            0.0000000000
     17896      5966  TIP3      OH2           -18.7793387078       22.6640736235        5.7172258414  W2        5966            0.0000000000
     17897      5966  TIP3      H1            -19.6967687078       22.9347836235        5.6815758414  W2        5966            0.0000000000
     17898      5966  TIP3      H2            -18.6563987078       22.1289136235        4.9331958414  W2        5966            0.0000000000
     17899      5967  TIP3      OH2           -18.7431387078       22.5870636235       -9.6210041586  W2        5967            0.0000000000
     17900      5967  TIP3      H1            -18.3308787078       21.8656336235      -10.0962041586  W2        5967            0.0000000000
     17901      5967  TIP3      H2            -18.0614887078       23.2565236235       -9.5625741586  W2        5967            0.0000000000
     17902      5968  TIP3      OH2           -36.4620687078       22.5918336235       -6.4939341586  W2        5968            0.0000000000
     17903      5968  TIP3      H1            -37.3872287078       22.8004936235       -6.6233841586  W2        5968            0.0000000000
     17904      5968  TIP3      H2            -36.0080787078       23.0759136235       -7.1837041586  W2        5968            0.0000000000
     17905      5969  TIP3      OH2           -36.4985287078       21.3297336235        1.8503158414  W2        5969            0.0000000000
     17906      5969  TIP3      H1            -37.1634787078       21.0837636235        2.4934058414  W2        5969            0.0000000000
     17907      5969  TIP3      H2            -36.9413987078       21.9517736235        1.2731158414  W2        5969            0.0000000000
     17908      5970  TIP3      OH2           -34.3065987078       34.5051436235        5.9948958414  W2        5970            0.0000000000
     17909      5970  TIP3      H1            -35.1273487078       34.6797936235        5.5343658414  W2        5970            0.0000000000
     17910      5970  TIP3      H2            -34.5588187078       34.4316136235        6.9153358414  W2        5970            0.0000000000
     17911      5971  TIP3      OH2           -31.3523087078       35.4792636235        2.2532958414  W2        5971            0.0000000000
     17912      5971  TIP3      H1            -31.7771987078       36.2891136235        1.9707558414  W2        5971            0.0000000000
     17913      5971  TIP3      H2            -30.4480287078       35.5646736235        1.9512758414  W2        5971            0.0000000000
     17914      5972  TIP3      OH2           -19.7787487078       20.7537036235        3.5363058414  W2        5972            0.0000000000
     17915      5972  TIP3      H1            -20.5913987078       21.0787336235        3.1487758414  W2        5972            0.0000000000
     17916      5972  TIP3      H2            -19.5458987078       19.9935536235        3.0032158414  W2        5972            0.0000000000
     17917      5973  TIP3      OH2           -32.3945187078       36.0687736235       -2.1340041586  W2        5973            0.0000000000
     17918      5973  TIP3      H1            -32.6134487078       35.1525136235       -1.9644041586  W2        5973            0.0000000000
     17919      5973  TIP3      H2            -31.5702987078       36.2088136235       -1.6678641586  W2        5973            0.0000000000
     17920      5974  TIP3      OH2           -29.8572687078       36.5387036235       -1.2852041586  W2        5974            0.0000000000
     17921      5974  TIP3      H1            -29.6446987078       35.6506036235       -1.5721141586  W2        5974            0.0000000000
     17922      5974  TIP3      H2            -29.7927587078       36.5044736235       -0.3308041586  W2        5974            0.0000000000
     17923      5975  TIP3      OH2           -26.3488987078       22.2027636235       -2.1408741586  W2        5975            0.0000000000
     17924      5975  TIP3      H1            -27.0232187078       21.5733236235       -1.8852941586  W2        5975            0.0000000000
     17925      5975  TIP3      H2            -25.7849787078       21.7186536235       -2.7440841586  W2        5975            0.0000000000
     17926      5976  TIP3      OH2           -21.2061787078       20.3101636235       -2.0281641586  W2        5976            0.0000000000
     17927      5976  TIP3      H1            -20.6024187078       20.8577036235       -2.5300641586  W2        5976            0.0000000000
     17928      5976  TIP3      H2            -22.0759787078       20.6292036235       -2.2687541586  W2        5976            0.0000000000
     17929      5977  TIP3      OH2           -19.4791387078       21.4490336235       -3.6950741586  W2        5977            0.0000000000
     17930      5977  TIP3      H1            -18.8673887078       20.9346036235       -4.2217141586  W2        5977            0.0000000000
     17931      5977  TIP3      H2            -19.0967987078       22.3262436235       -3.6716341586  W2        5977            0.0000000000
     17932      5978  TIP3      OH2           -34.0221487078       20.8367936235       -4.3188841586  W2        5978            0.0000000000
     17933      5978  TIP3      H1            -34.7991687078       20.6022836235       -4.8262941586  W2        5978            0.0000000000
     17934      5978  TIP3      H2            -33.4917887078       20.0400036235       -4.3100841586  W2        5978            0.0000000000
     17935      5979  TIP3      OH2           -35.1858087078       20.6346036235       -8.5152741586  W2        5979            0.0000000000
     17936      5979  TIP3      H1            -34.7467387078       21.2456536235       -9.1069241586  W2        5979            0.0000000000
     17937      5979  TIP3      H2            -35.8195687078       21.1730136235       -8.0412741586  W2        5979            0.0000000000
     17938      5980  TIP3      OH2           -29.4428887078       20.7635036235       -4.5055741586  W2        5980            0.0000000000
     17939      5980  TIP3      H1            -28.5685487078       21.1519336235       -4.5351441586  W2        5980            0.0000000000
     17940      5980  TIP3      H2            -29.5788087078       20.5482836235       -3.5828541586  W2        5980            0.0000000000
     17941      5981  TIP3      OH2           -23.8860487078       20.7934836235       -2.8564041586  W2        5981            0.0000000000
     17942      5981  TIP3      H1            -23.8098887078       20.8886436235       -3.8058041586  W2        5981            0.0000000000
     17943      5981  TIP3      H2            -24.1611287078       19.8857736235       -2.7274941586  W2        5981            0.0000000000
     17944      5982  TIP3      OH2           -22.5327887078       20.8192636235       -7.1639041586  W2        5982            0.0000000000
     17945      5982  TIP3      H1            -23.2356787078       21.4341836235       -7.3737641586  W2        5982            0.0000000000
     17946      5982  TIP3      H2            -22.9776487078       19.9819336235       -7.0328141586  W2        5982            0.0000000000
     17947      5983  TIP3      OH2           -35.2848587078       36.5828236235       -7.6177641586  W2        5983            0.0000000000
     17948      5983  TIP3      H1            -35.9698687078       36.5447136235       -8.2852541586  W2        5983            0.0000000000
     17949      5983  TIP3      H2            -35.2811387078       37.4955836235       -7.3295541586  W2        5983            0.0000000000
     17950      5984  TIP3      OH2           -33.3248987078       22.5507536235      -10.0728641586  W2        5984            0.0000000000
     17951      5984  TIP3      H1            -32.8335587078       21.9209936235      -10.6003141586  W2        5984            0.0000000000
     17952      5984  TIP3      H2            -32.7012687078       22.8466936235       -9.4097441586  W2        5984            0.0000000000
     17953      5985  TIP3      OH2           -28.2988887078       22.8439036235       -7.6158141586  W2        5985            0.0000000000
     17954      5985  TIP3      H1            -28.1207587078       22.1972236235       -6.9329541586  W2        5985            0.0000000000
     17955      5985  TIP3      H2            -28.3522687078       23.6776736235       -7.1487041586  W2        5985            0.0000000000
     17956      5986  TIP3      OH2           -34.0643487078       21.3509836235        5.1987358414  W2        5986            0.0000000000
     17957      5986  TIP3      H1            -34.4305287078       20.5852436235        5.6412058414  W2        5986            0.0000000000
     17958      5986  TIP3      H2            -33.1514987078       21.3800036235        5.4852458414  W2        5986            0.0000000000
     17959      5987  TIP3      OH2           -32.0912687078       20.7014236235        6.7344458414  W2        5987            0.0000000000
     17960      5987  TIP3      H1            -31.1929087078       20.4274436235        6.5497858414  W2        5987            0.0000000000
     17961      5987  TIP3      H2            -32.4779587078       19.9590236235        7.1987058414  W2        5987            0.0000000000
     17962      5988  TIP3      OH2           -23.6700387078       20.0339536235        6.9167258414  W2        5988            0.0000000000
     17963      5988  TIP3      H1            -23.5933187078       19.6080236235        7.7704958414  W2        5988            0.0000000000
     17964      5988  TIP3      H2            -22.7763787078       20.0474236235        6.5740758414  W2        5988            0.0000000000
     17965      5989  TIP3      OH2           -20.4939287078       36.1065836235        5.6091458414  W2        5989            0.0000000000
     17966      5989  TIP3      H1            -21.2757387078       35.9203836235        5.0892058414  W2        5989            0.0000000000
     17967      5989  TIP3      H2            -20.5659387078       37.0360136235        5.8263958414  W2        5989            0.0000000000
     17968      5990  TIP3      OH2            -6.0878887078       29.9930236235       -4.3601341586  W2        5990            0.0000000000
     17969      5990  TIP3      H1             -5.9987787078       30.9368436235       -4.4924241586  W2        5990            0.0000000000
     17970      5990  TIP3      H2             -6.7261287078       29.7176636235       -5.0181941586  W2        5990            0.0000000000
     17971      5991  TIP3      OH2            -7.1547587078       29.2480936235       -0.9413141586  W2        5991            0.0000000000
     17972      5991  TIP3      H1             -7.1930087078       28.6017236235       -0.2363541586  W2        5991            0.0000000000
     17973      5991  TIP3      H2             -7.4771087078       28.7815336235       -1.7124441586  W2        5991            0.0000000000
     17974      5992  TIP3      OH2           -14.7862587078       28.8623036235        0.6516758414  W2        5992            0.0000000000
     17975      5992  TIP3      H1            -14.7450487078       28.2366336235        1.3749158414  W2        5992            0.0000000000
     17976      5992  TIP3      H2            -14.0834887078       29.4861636235        0.8337158414  W2        5992            0.0000000000
     17977      5993  TIP3      OH2            -3.4487387078       32.1871336235       -2.6398041586  W2        5993            0.0000000000
     17978      5993  TIP3      H1             -3.8894687078       31.4667336235       -2.1892441586  W2        5993            0.0000000000
     17979      5993  TIP3      H2             -3.4617687078       32.9078536235       -2.0100341586  W2        5993            0.0000000000
     17980      5994  TIP3      OH2           -13.8629487078       33.3121936235       -0.8134141586  W2        5994            0.0000000000
     17981      5994  TIP3      H1            -14.2324287078       32.5102436235       -1.1829841586  W2        5994            0.0000000000
     17982      5994  TIP3      H2            -12.9218387078       33.1436836235       -0.7670741586  W2        5994            0.0000000000
     17983      5995  TIP3      OH2           -17.2528987078       26.9724536235       -5.4205341586  W2        5995            0.0000000000
     17984      5995  TIP3      H1            -17.7005587078       27.8183236235       -5.4388841586  W2        5995            0.0000000000
     17985      5995  TIP3      H2            -17.8137787078       26.3928736235       -5.9360241586  W2        5995            0.0000000000
     17986      5996  TIP3      OH2           -16.5422887078       29.1344136235       -3.2947341586  W2        5996            0.0000000000
     17987      5996  TIP3      H1            -16.3289387078       28.3645736235       -2.7674341586  W2        5996            0.0000000000
     17988      5996  TIP3      H2            -15.8045287078       29.2240836235       -3.8979741586  W2        5996            0.0000000000
     17989      5997  TIP3      OH2            -8.7653187078       31.6802336235       -0.5352141586  W2        5997            0.0000000000
     17990      5997  TIP3      H1             -8.4615287078       30.9943736235       -1.1298041586  W2        5997            0.0000000000
     17991      5997  TIP3      H2             -8.0439187078       31.7991036235        0.0825858414  W2        5997            0.0000000000
     17992      5998  TIP3      OH2            -0.1023387078       23.2817636235        0.3254058414  W2        5998            0.0000000000
     17993      5998  TIP3      H1             -0.0531187078       23.8918836235        1.0613158414  W2        5998            0.0000000000
     17994      5998  TIP3      H2              0.3231712922       23.7428536235       -0.3974841586  W2        5998            0.0000000000
     17995      5999  TIP3      OH2            -5.6246187078       26.0744736235       -0.2077341586  W2        5999            0.0000000000
     17996      5999  TIP3      H1             -5.4820287078       25.1281736235       -0.1875741586  W2        5999            0.0000000000
     17997      5999  TIP3      H2             -5.7307187078       26.2814536235       -1.1362441586  W2        5999            0.0000000000
     17998      6000  TIP3      OH2           -12.4697887078       24.1761136235       -2.9352541586  W2        6000            0.0000000000
     17999      6000  TIP3      H1            -12.4266787078       25.0359636235       -3.3536241586  W2        6000            0.0000000000
     18000      6000  TIP3      H2            -12.9273787078       23.6235836235       -3.5689341586  W2        6000            0.0000000000
     18001      6001  TIP3      OH2            -4.7475187078       24.3066736235       -4.5344241586  W2        6001            0.0000000000
     18002      6001  TIP3      H1             -4.1010887078       23.9779936235       -3.9096641586  W2        6001            0.0000000000
     18003      6001  TIP3      H2             -4.2375787078       24.8245736235       -5.1572841586  W2        6001            0.0000000000
     18004      6002  TIP3      OH2           -15.8496387078       26.5726936235       -2.1731141586  W2        6002            0.0000000000
     18005      6002  TIP3      H1            -15.1959787078       26.0228636235       -1.7411041586  W2        6002            0.0000000000
     18006      6002  TIP3      H2            -15.8257087078       26.2985936235       -3.0899141586  W2        6002            0.0000000000
     18007      6003  TIP3      OH2           -10.6931887078       28.1228236235       -2.9579641586  W2        6003            0.0000000000
     18008      6003  TIP3      H1            -10.0770887078       27.5963636235       -2.4485641586  W2        6003            0.0000000000
     18009      6003  TIP3      H2            -11.2793087078       27.4826936235       -3.3616041586  W2        6003            0.0000000000
     18010      6004  TIP3      OH2             0.2891212922       24.7596836235        2.5613858414  W2        6004            0.0000000000
     18011      6004  TIP3      H1             -0.3994187078       25.4177536235        2.4660458414  W2        6004            0.0000000000
     18012      6004  TIP3      H2              0.3045812922       24.5624736235        3.4979258414  W2        6004            0.0000000000
     18013      6005  TIP3      OH2           -13.6595987078       23.0939536235        1.1388258414  W2        6005            0.0000000000
     18014      6005  TIP3      H1            -13.8784287078       23.6240136235        0.3724258414  W2        6005            0.0000000000
     18015      6005  TIP3      H2            -14.3275087078       23.3205036235        1.7859658414  W2        6005            0.0000000000
     18016      6006  TIP3      OH2            -6.2906187078       32.5940636235       -5.3172641586  W2        6006            0.0000000000
     18017      6006  TIP3      H1             -6.5861087078       32.2712936235       -6.1685741586  W2        6006            0.0000000000
     18018      6006  TIP3      H2             -6.6148387078       33.4937336235       -5.2760041586  W2        6006            0.0000000000
     18019      6007  TIP3      OH2           -11.0904587078       30.7695236235        1.4261958414  W2        6007            0.0000000000
     18020      6007  TIP3      H1            -11.8305487078       31.3676736235        1.5297158414  W2        6007            0.0000000000
     18021      6007  TIP3      H2            -10.3765087078       31.3234836235        1.1105558414  W2        6007            0.0000000000
     18022      6008  TIP3      OH2            -2.9836787078       23.5976036235       -2.5538341586  W2        6008            0.0000000000
     18023      6008  TIP3      H1             -3.1988787078       22.8319436235       -2.0212341586  W2        6008            0.0000000000
     18024      6008  TIP3      H2             -2.3279387078       24.0700636235       -2.0409841586  W2        6008            0.0000000000
     18025      6009  TIP3      OH2           -14.0658687078       24.9861336235       -0.9089541586  W2        6009            0.0000000000
     18026      6009  TIP3      H1            -13.4522387078       25.6188936235       -0.5357141586  W2        6009            0.0000000000
     18027      6009  TIP3      H2            -13.5537987078       24.5136336235       -1.5652641586  W2        6009            0.0000000000
     18028      6010  TIP3      OH2           -12.6830287078       32.7338236235        2.2133458414  W2        6010            0.0000000000
     18029      6010  TIP3      H1            -12.6882687078       33.6131736235        1.8352758414  W2        6010            0.0000000000
     18030      6010  TIP3      H2            -13.5366187078       32.6502336235        2.6383358414  W2        6010            0.0000000000
     18031      6011  TIP3      OH2           -16.5619387078       32.4046136235       -7.0047241586  W2        6011            0.0000000000
     18032      6011  TIP3      H1            -16.8338487078       32.6337136235       -7.8934341586  W2        6011            0.0000000000
     18033      6011  TIP3      H2            -16.5163687078       33.2424936235       -6.5441941586  W2        6011            0.0000000000
     18034      6012  TIP3      OH2            -2.9369687078       34.0262036235       -0.2918741586  W2        6012            0.0000000000
     18035      6012  TIP3      H1             -3.8785987078       34.0845936235       -0.1301841586  W2        6012            0.0000000000
     18036      6012  TIP3      H2             -2.6603587078       34.9322536235       -0.4289041586  W2        6012            0.0000000000
     18037      6013  TIP3      OH2            -2.6362687078       22.3127336235        1.1255158414  W2        6013            0.0000000000
     18038      6013  TIP3      H1             -3.3723487078       22.9234436235        1.0876458414  W2        6013            0.0000000000
     18039      6013  TIP3      H2             -1.9528687078       22.7276336235        0.5991558414  W2        6013            0.0000000000
     18040      6014  TIP3      OH2            -9.6331287078       20.3994636235       -1.4086841586  W2        6014            0.0000000000
     18041      6014  TIP3      H1             -9.7507087078       19.4510636235       -1.4628541586  W2        6014            0.0000000000
     18042      6014  TIP3      H2            -10.4881187078       20.7320736235       -1.1355741586  W2        6014            0.0000000000
     18043      6015  TIP3      OH2            -4.6848487078       35.8075536235       -3.6667141586  W2        6015            0.0000000000
     18044      6015  TIP3      H1             -4.2596187078       35.1003436235       -4.1517541586  W2        6015            0.0000000000
     18045      6015  TIP3      H2             -4.3678487078       36.6088236235       -4.0834941586  W2        6015            0.0000000000
     18046      6016  TIP3      OH2            -3.5251987078       33.7084036235       -5.1580541586  W2        6016            0.0000000000
     18047      6016  TIP3      H1             -3.7827187078       33.0184136235       -5.7694641586  W2        6016            0.0000000000
     18048      6016  TIP3      H2             -3.4541187078       33.2655236235       -4.3124641586  W2        6016            0.0000000000
     18049      6017  TIP3      OH2            -1.8391787078       32.2750736235        3.3192958414  W2        6017            0.0000000000
     18050      6017  TIP3      H1             -1.6995487078       31.6833236235        2.5799958414  W2        6017            0.0000000000
     18051      6017  TIP3      H2             -1.6718987078       33.1476636235        2.9631758414  W2        6017            0.0000000000
     18052      6018  TIP3      OH2            -7.3666387078       29.2370236235       -6.9081041586  W2        6018            0.0000000000
     18053      6018  TIP3      H1             -8.0780887078       29.7719936235       -7.2600541586  W2        6018            0.0000000000
     18054      6018  TIP3      H2             -6.6756787078       29.2922336235       -7.5682141586  W2        6018            0.0000000000
     18055      6019  TIP3      OH2            -7.3127187078       27.6944536235       -9.8696041586  W2        6019            0.0000000000
     18056      6019  TIP3      H1             -6.6117287078       27.7171436235       -9.2182041586  W2        6019            0.0000000000
     18057      6019  TIP3      H2             -7.0104287078       27.0664236235      -10.5256741586  W2        6019            0.0000000000
     18058      6020  TIP3      OH2             0.0027512922       28.6148736235        1.3853358414  W2        6020            0.0000000000
     18059      6020  TIP3      H1             -0.6498387078       29.3094336235        1.4744258414  W2        6020            0.0000000000
     18060      6020  TIP3      H2              0.4677812922       28.8249636235        0.5754958414  W2        6020            0.0000000000
     18061      6021  TIP3      OH2            -3.9608687078       29.4463536235       -5.9565141586  W2        6021            0.0000000000
     18062      6021  TIP3      H1             -4.6927687078       29.6747236235       -5.3834541586  W2        6021            0.0000000000
     18063      6021  TIP3      H2             -3.5136487078       28.7326236235       -5.5017641586  W2        6021            0.0000000000
     18064      6022  TIP3      OH2            -4.0635187078       27.6206136235        3.1111858414  W2        6022            0.0000000000
     18065      6022  TIP3      H1             -3.9836087078       28.3840536235        3.6830358414  W2        6022            0.0000000000
     18066      6022  TIP3      H2             -4.6647487078       27.8998536235        2.4206958414  W2        6022            0.0000000000
     18067      6023  TIP3      OH2           -12.3154987078       30.0769736235       -4.0740141586  W2        6023            0.0000000000
     18068      6023  TIP3      H1            -12.6459787078       29.7063136235       -4.8923141586  W2        6023            0.0000000000
     18069      6023  TIP3      H2            -11.7270887078       29.4063736235       -3.7271841586  W2        6023            0.0000000000
     18070      6024  TIP3      OH2           -10.9487487078       33.5050336235       -1.3927941586  W2        6024            0.0000000000
     18071      6024  TIP3      H1            -11.0436187078       32.9263436235       -2.1493341586  W2        6024            0.0000000000
     18072      6024  TIP3      H2            -10.2193887078       33.1336036235       -0.8965141586  W2        6024            0.0000000000
     18073      6025  TIP3      OH2           -11.9489487078       28.8455336235       -0.4405141586  W2        6025            0.0000000000
     18074      6025  TIP3      H1            -11.3836987078       28.9669536235       -1.2033941586  W2        6025            0.0000000000
     18075      6025  TIP3      H2            -11.6300587078       29.4830336235        0.1983358414  W2        6025            0.0000000000
     18076      6026  TIP3      OH2            -5.6397287078       34.3487236235        0.2935358414  W2        6026            0.0000000000
     18077      6026  TIP3      H1             -5.8800687078       35.0110336235        0.9414558414  W2        6026            0.0000000000
     18078      6026  TIP3      H2             -5.8379087078       33.5142436235        0.7184958414  W2        6026            0.0000000000
     18079      6027  TIP3      OH2           -11.0688787078       33.2448036235        4.2766758414  W2        6027            0.0000000000
     18080      6027  TIP3      H1            -11.3801287078       34.0271236235        4.7319958414  W2        6027            0.0000000000
     18081      6027  TIP3      H2            -11.7188587078       33.0917136235        3.5908758414  W2        6027            0.0000000000
     18082      6028  TIP3      OH2            -5.0899187078       28.6086436235       -8.2713941586  W2        6028            0.0000000000
     18083      6028  TIP3      H1             -4.5103687078       28.7586736235       -7.5245041586  W2        6028            0.0000000000
     18084      6028  TIP3      H2             -4.6759187078       29.0793836235       -8.9947541586  W2        6028            0.0000000000
     18085      6029  TIP3      OH2           -14.1488887078       29.4429136235        3.5052458414  W2        6029            0.0000000000
     18086      6029  TIP3      H1            -14.0785687078       30.0935936235        4.2037458414  W2        6029            0.0000000000
     18087      6029  TIP3      H2            -15.0396687078       29.5456636235        3.1703358414  W2        6029            0.0000000000
     18088      6030  TIP3      OH2            -7.3634287078       35.3454936235       -4.8360841586  W2        6030            0.0000000000
     18089      6030  TIP3      H1             -6.8896687078       35.6411236235       -4.0586641586  W2        6030            0.0000000000
     18090      6030  TIP3      H2             -7.9264987078       36.0836536235       -5.0691241586  W2        6030            0.0000000000
     18091      6031  TIP3      OH2           -12.8292887078       35.3163036235        5.0400558414  W2        6031            0.0000000000
     18092      6031  TIP3      H1            -12.8217587078       35.1802736235        4.0926058414  W2        6031            0.0000000000
     18093      6031  TIP3      H2            -13.7452487078       35.1991136235        5.2920558414  W2        6031            0.0000000000
     18094      6032  TIP3      OH2            -1.3910787078       20.3586836235       -8.4584241586  W2        6032            0.0000000000
     18095      6032  TIP3      H1             -2.2910087078       20.4975836235       -8.1633641586  W2        6032            0.0000000000
     18096      6032  TIP3      H2             -1.1392387078       21.1901436235       -8.8602541586  W2        6032            0.0000000000
     18097      6033  TIP3      OH2           -13.3252287078       29.1464036235       -6.4847341586  W2        6033            0.0000000000
     18098      6033  TIP3      H1            -13.6170987078       29.9145736235       -6.9756041586  W2        6033            0.0000000000
     18099      6033  TIP3      H2            -13.9997087078       28.4870236235       -6.6475941586  W2        6033            0.0000000000
     18100      6034  TIP3      OH2            -0.2019387078       34.7249236235      -10.0820341586  W2        6034            0.0000000000
     18101      6034  TIP3      H1             -0.1285887078       35.6639436235       -9.9115041586  W2        6034            0.0000000000
     18102      6034  TIP3      H2              0.7035712922       34.4197836235      -10.1383041586  W2        6034            0.0000000000
     18103      6035  TIP3      OH2           -17.2322187078       31.5093236235        2.3302458414  W2        6035            0.0000000000
     18104      6035  TIP3      H1            -17.7333787078       31.4812636235        1.5152158414  W2        6035            0.0000000000
     18105      6035  TIP3      H2            -17.2268487078       30.6036436235        2.6399758414  W2        6035            0.0000000000
     18106      6036  TIP3      OH2           -17.4819487078       34.2897036235       -0.7857341586  W2        6036            0.0000000000
     18107      6036  TIP3      H1            -16.5358887078       34.1454036235       -0.8047841586  W2        6036            0.0000000000
     18108      6036  TIP3      H2            -17.5943187078       35.0739836235       -0.2486141586  W2        6036            0.0000000000
     18109      6037  TIP3      OH2             0.7159012922       34.9556736235        4.8966358414  W2        6037            0.0000000000
     18110      6037  TIP3      H1              0.6665812922       34.0004836235        4.8593958414  W2        6037            0.0000000000
     18111      6037  TIP3      H2             -0.1108687078       35.2232036235        5.2980158414  W2        6037            0.0000000000
     18112      6038  TIP3      OH2            -8.3056987078       34.5295936235        3.7727758414  W2        6038            0.0000000000
     18113      6038  TIP3      H1             -8.2182387078       35.3560536235        4.2476858414  W2        6038            0.0000000000
     18114      6038  TIP3      H2             -9.1691887078       34.1999736235        4.0217058414  W2        6038            0.0000000000
     18115      6039  TIP3      OH2            -2.1321187078       26.4489236235        5.3768558414  W2        6039            0.0000000000
     18116      6039  TIP3      H1             -2.5394387078       26.9294836235        4.6561858414  W2        6039            0.0000000000
     18117      6039  TIP3      H2             -2.0915487078       25.5435236235        5.0689358414  W2        6039            0.0000000000
     18118      6040  TIP3      OH2           -14.9831687078       32.8328636235        3.3735258414  W2        6040            0.0000000000
     18119      6040  TIP3      H1            -14.7670387078       32.4714236235        4.2331058414  W2        6040            0.0000000000
     18120      6040  TIP3      H2            -15.8386987078       32.4582436235        3.1638758414  W2        6040            0.0000000000
     18121      6041  TIP3      OH2           -12.3643687078       21.3029136235       -0.6310541586  W2        6041            0.0000000000
     18122      6041  TIP3      H1            -13.2259987078       21.2157336235       -1.0387641586  W2        6041            0.0000000000
     18123      6041  TIP3      H2            -12.3867987078       22.1589236235       -0.2032941586  W2        6041            0.0000000000
     18124      6042  TIP3      OH2            -7.7015887078       21.0249536235        2.7436458414  W2        6042            0.0000000000
     18125      6042  TIP3      H1             -7.2812787078       20.6096636235        3.4967058414  W2        6042            0.0000000000
     18126      6042  TIP3      H2             -8.6346287078       20.8462836235        2.8608458414  W2        6042            0.0000000000
     18127      6043  TIP3      OH2            -4.3750987078       24.7804736235        3.5970958414  W2        6043            0.0000000000
     18128      6043  TIP3      H1             -4.8891487078       24.6546936235        4.3946958414  W2        6043            0.0000000000
     18129      6043  TIP3      H2             -4.5306287078       25.6927836235        3.3527158414  W2        6043            0.0000000000
     18130      6044  TIP3      OH2            -3.6126087078       29.6414736235      -10.6416041586  W2        6044            0.0000000000
     18131      6044  TIP3      H1             -3.5705287078       29.4188636235      -11.5716041586  W2        6044            0.0000000000
     18132      6044  TIP3      H2             -2.7633987078       30.0401836235      -10.4516141586  W2        6044            0.0000000000
     18133      6045  TIP3      OH2            -8.0398587078       23.5172936235       -9.9712741586  W2        6045            0.0000000000
     18134      6045  TIP3      H1             -8.2933787078       23.5364536235       -9.0484641586  W2        6045            0.0000000000
     18135      6045  TIP3      H2             -8.2966487078       22.6458336235      -10.2726541586  W2        6045            0.0000000000
     18136      6046  TIP3      OH2           -12.2733587078       26.2683636235        0.4639658414  W2        6046            0.0000000000
     18137      6046  TIP3      H1            -12.9151487078       26.2280936235        1.1729758414  W2        6046            0.0000000000
     18138      6046  TIP3      H2            -12.2361587078       27.1948336235        0.2262658414  W2        6046            0.0000000000
     18139      6047  TIP3      OH2           -12.2764487078       26.4893736235       -4.6240341586  W2        6047            0.0000000000
     18140      6047  TIP3      H1            -13.1691587078       26.1489836235       -4.6826541586  W2        6047            0.0000000000
     18141      6047  TIP3      H2            -11.8257887078       26.1124636235       -5.3797141586  W2        6047            0.0000000000
     18142      6048  TIP3      OH2            -6.7408987078       26.9054036235       -5.8069541586  W2        6048            0.0000000000
     18143      6048  TIP3      H1             -7.1498687078       27.7202636235       -6.0984741586  W2        6048            0.0000000000
     18144      6048  TIP3      H2             -6.0202787078       26.7654136235       -6.4212441586  W2        6048            0.0000000000
     18145      6049  TIP3      OH2            -7.6387387078       27.0810436235        5.6811158414  W2        6049            0.0000000000
     18146      6049  TIP3      H1             -8.2013587078       26.3762036235        6.0018958414  W2        6049            0.0000000000
     18147      6049  TIP3      H2             -6.8123987078       26.9602336235        6.1488758414  W2        6049            0.0000000000
     18148      6050  TIP3      OH2            -5.7361287078       26.3514436235       -2.9929841586  W2        6050            0.0000000000
     18149      6050  TIP3      H1             -5.9316787078       26.9571236235       -3.7079241586  W2        6050            0.0000000000
     18150      6050  TIP3      H2             -5.5548687078       25.5179636235       -3.4273541586  W2        6050            0.0000000000
     18151      6051  TIP3      OH2           -14.5233087078       26.5887136235        2.3311658414  W2        6051            0.0000000000
     18152      6051  TIP3      H1            -14.5613687078       26.9888736235        3.1998758414  W2        6051            0.0000000000
     18153      6051  TIP3      H2            -15.0141987078       25.7719536235        2.4214558414  W2        6051            0.0000000000
     18154      6052  TIP3      OH2           -11.1575687078       23.9629436235      -10.8702341586  W2        6052            0.0000000000
     18155      6052  TIP3      H1            -11.5884987078       23.5179536235      -10.1404941586  W2        6052            0.0000000000
     18156      6052  TIP3      H2            -11.8756987078       24.3345736235      -11.3824841586  W2        6052            0.0000000000
     18157      6053  TIP3      OH2           -17.9152287078       23.7048936235       -3.8183641586  W2        6053            0.0000000000
     18158      6053  TIP3      H1            -17.2844587078       23.6761036235       -3.0989741586  W2        6053            0.0000000000
     18159      6053  TIP3      H2            -17.4657987078       23.2797636235       -4.5487741586  W2        6053            0.0000000000
     18160      6054  TIP3      OH2           -16.6410187078       24.4510936235       -8.3943241586  W2        6054            0.0000000000
     18161      6054  TIP3      H1            -16.1668487078       25.0420836235       -8.9792341586  W2        6054            0.0000000000
     18162      6054  TIP3      H2            -17.3583787078       24.9813836235       -8.0473141586  W2        6054            0.0000000000
     18163      6055  TIP3      OH2            -6.4722087078       27.9895736235        1.6782558414  W2        6055            0.0000000000
     18164      6055  TIP3      H1             -6.1487287078       27.3585436235        1.0353058414  W2        6055            0.0000000000
     18165      6055  TIP3      H2             -6.9122787078       27.4547936235        2.3389958414  W2        6055            0.0000000000
     18166      6056  TIP3      OH2            -9.6949187078       23.9171236235       -3.5376241586  W2        6056            0.0000000000
     18167      6056  TIP3      H1            -10.6058087078       23.9738036235       -3.2490241586  W2        6056            0.0000000000
     18168      6056  TIP3      H2             -9.1896287078       23.8566736235       -2.7269041586  W2        6056            0.0000000000
     18169      6057  TIP3      OH2           -14.8665787078       25.5457536235       -4.7108641586  W2        6057            0.0000000000
     18170      6057  TIP3      H1            -15.7557787078       25.6453036235       -5.0509041586  W2        6057            0.0000000000
     18171      6057  TIP3      H2            -14.5700887078       24.7040536235       -5.0570741586  W2        6057            0.0000000000
     18172      6058  TIP3      OH2           -11.2133987078       25.5460136235       -7.0544041586  W2        6058            0.0000000000
     18173      6058  TIP3      H1            -10.2818487078       25.6750136235       -6.8760941586  W2        6058            0.0000000000
     18174      6058  TIP3      H2            -11.4283687078       26.2154436235       -7.7039341586  W2        6058            0.0000000000
     18175      6059  TIP3      OH2            -5.2897287078       23.1517536235       -0.2734441586  W2        6059            0.0000000000
     18176      6059  TIP3      H1             -5.9665687078       23.2830636235        0.3905258414  W2        6059            0.0000000000
     18177      6059  TIP3      H2             -5.7752387078       22.9967036235       -1.0836741586  W2        6059            0.0000000000
     18178      6060  TIP3      OH2           -12.5393787078       26.7402336235       -9.4877941586  W2        6060            0.0000000000
     18179      6060  TIP3      H1            -13.0818687078       26.3606136235      -10.1790341586  W2        6060            0.0000000000
     18180      6060  TIP3      H2            -11.7058887078       26.9347036235       -9.9163841586  W2        6060            0.0000000000
     18181      6061  TIP3      OH2           -14.4042387078       31.2974236235        5.6113658414  W2        6061            0.0000000000
     18182      6061  TIP3      H1            -13.6719987078       31.5520136235        6.1728158414  W2        6061            0.0000000000
     18183      6061  TIP3      H2            -15.1843687078       31.5019636235        6.1269058414  W2        6061            0.0000000000
     18184      6062  TIP3      OH2            -8.3749487078       26.7044236235       -1.6506641586  W2        6062            0.0000000000
     18185      6062  TIP3      H1             -7.8106087078       26.1580836235       -2.1977041586  W2        6062            0.0000000000
     18186      6062  TIP3      H2             -8.5226087078       26.1826136235       -0.8619041586  W2        6062            0.0000000000
     18187      6063  TIP3      OH2           -13.3729787078       22.8410336235       -5.2321841586  W2        6063            0.0000000000
     18188      6063  TIP3      H1            -13.6900287078       21.9385636235       -5.2676441586  W2        6063            0.0000000000
     18189      6063  TIP3      H2            -12.5915687078       22.8427736235       -5.7850241586  W2        6063            0.0000000000
     18190      6064  TIP3      OH2            -9.7483587078       25.0930336235        0.7633758414  W2        6064            0.0000000000
     18191      6064  TIP3      H1            -10.5838287078       25.5469836235        0.8736158414  W2        6064            0.0000000000
     18192      6064  TIP3      H2             -9.2242987078       25.3688836235        1.5153658414  W2        6064            0.0000000000
     18193      6065  TIP3      OH2            -9.2040987078       31.3058036235       -7.5519841586  W2        6065            0.0000000000
     18194      6065  TIP3      H1             -9.9489987078       30.7983336235       -7.8741941586  W2        6065            0.0000000000
     18195      6065  TIP3      H2             -9.3383787078       31.3546036235       -6.6055041586  W2        6065            0.0000000000
     18196      6066  TIP3      OH2            -2.0542087078       30.4386236235        1.2347758414  W2        6066            0.0000000000
     18197      6066  TIP3      H1             -1.4123287078       30.8952536235        0.6909958414  W2        6066            0.0000000000
     18198      6066  TIP3      H2             -2.8845187078       30.5518636235        0.7721858414  W2        6066            0.0000000000
     18199      6067  TIP3      OH2            -5.3064187078       24.1197936235       -9.3527241586  W2        6067            0.0000000000
     18200      6067  TIP3      H1             -6.2449987078       24.2313536235       -9.5038441586  W2        6067            0.0000000000
     18201      6067  TIP3      H2             -5.0092087078       24.9764836235       -9.0461541586  W2        6067            0.0000000000
     18202      6068  TIP3      OH2            -7.6848887078       31.4901336235        3.6849258414  W2        6068            0.0000000000
     18203      6068  TIP3      H1             -8.0302787078       31.1083736235        4.4918858414  W2        6068            0.0000000000
     18204      6068  TIP3      H2             -7.8848787078       32.4234936235        3.7562158414  W2        6068            0.0000000000
     18205      6069  TIP3      OH2            -4.5880687078       25.9870636235       -7.6919841586  W2        6069            0.0000000000
     18206      6069  TIP3      H1             -3.6961687078       25.8495636235       -7.3728641586  W2        6069            0.0000000000
     18207      6069  TIP3      H2             -4.5317087078       26.7776736235       -8.2286341586  W2        6069            0.0000000000
     18208      6070  TIP3      OH2           -14.0792687078       30.6008036235       -1.7821941586  W2        6070            0.0000000000
     18209      6070  TIP3      H1            -13.3345487078       30.5983736235       -2.3835441586  W2        6070            0.0000000000
     18210      6070  TIP3      H2            -14.0016087078       29.7771836235       -1.3006841586  W2        6070            0.0000000000
     18211      6071  TIP3      OH2            -7.0786887078       32.7642336235       -8.5265241586  W2        6071            0.0000000000
     18212      6071  TIP3      H1             -7.3738487078       33.5910236235       -8.1450441586  W2        6071            0.0000000000
     18213      6071  TIP3      H2             -7.7816887078       32.1449236235       -8.3303841586  W2        6071            0.0000000000
     18214      6072  TIP3      OH2           -17.0712987078       29.0614936235        3.5326558414  W2        6072            0.0000000000
     18215      6072  TIP3      H1            -16.8484387078       28.6434536235        4.3644058414  W2        6072            0.0000000000
     18216      6072  TIP3      H2            -17.6732887078       28.4489936235        3.1099358414  W2        6072            0.0000000000
     18217      6073  TIP3      OH2           -10.0548087078       28.5784836235        5.7456258414  W2        6073            0.0000000000
     18218      6073  TIP3      H1            -10.3507287078       28.4127836235        4.8505358414  W2        6073            0.0000000000
     18219      6073  TIP3      H2             -9.1232887078       28.3585136235        5.7350158414  W2        6073            0.0000000000
     18220      6074  TIP3      OH2            -5.4345287078       33.9516836235        3.6354258414  W2        6074            0.0000000000
     18221      6074  TIP3      H1             -6.3350987078       34.1349436235        3.3678158414  W2        6074            0.0000000000
     18222      6074  TIP3      H2             -5.4004187078       34.2106136235        4.5563058414  W2        6074            0.0000000000
     18223      6075  TIP3      OH2             0.2968012922       26.1964736235       -7.9973141586  W2        6075            0.0000000000
     18224      6075  TIP3      H1             -0.2575687078       25.8002736235       -8.6695641586  W2        6075            0.0000000000
     18225      6075  TIP3      H2              0.3971612922       27.1069936235       -8.2749841586  W2        6075            0.0000000000
     18226      6076  TIP3      OH2             0.2600012922       31.9966436235        4.8398358414  W2        6076            0.0000000000
     18227      6076  TIP3      H1             -0.5911487078       32.2350236235        4.4724758414  W2        6076            0.0000000000
     18228      6076  TIP3      H2              0.8503412922       31.9799636235        4.0865458414  W2        6076            0.0000000000
     18229      6077  TIP3      OH2            -1.4080287078       34.9825136235       -7.5321041586  W2        6077            0.0000000000
     18230      6077  TIP3      H1             -1.7809187078       34.1568936235       -7.2230441586  W2        6077            0.0000000000
     18231      6077  TIP3      H2             -1.1306787078       34.7994536235       -8.4297641586  W2        6077            0.0000000000
     18232      6078  TIP3      OH2            -4.2476387078       29.7904636235       -0.5109141586  W2        6078            0.0000000000
     18233      6078  TIP3      H1             -5.1759487078       29.5586536235       -0.5379841586  W2        6078            0.0000000000
     18234      6078  TIP3      H2             -3.7965287078       29.0134436235       -0.8410341586  W2        6078            0.0000000000
     18235      6079  TIP3      OH2           -11.7043287078       34.1186236235       -4.3780441586  W2        6079            0.0000000000
     18236      6079  TIP3      H1            -11.1771087078       34.8920636235       -4.5781641586  W2        6079            0.0000000000
     18237      6079  TIP3      H2            -12.5844787078       34.3435436235       -4.6796441586  W2        6079            0.0000000000
     18238      6080  TIP3      OH2           -15.9495587078       28.9810336235       -9.7908041586  W2        6080            0.0000000000
     18239      6080  TIP3      H1            -15.3335687078       29.6077536235       -9.4113241586  W2        6080            0.0000000000
     18240      6080  TIP3      H2            -16.8112987078       29.2970136235       -9.5191541586  W2        6080            0.0000000000
     18241      6081  TIP3      OH2           -10.2770987078       31.7816136235       -4.8016141586  W2        6081            0.0000000000
     18242      6081  TIP3      H1            -10.5180987078       32.7070536235       -4.7600841586  W2        6081            0.0000000000
     18243      6081  TIP3      H2            -11.0177387078       31.3227436235       -4.4052241586  W2        6081            0.0000000000
     18244      6082  TIP3      OH2            -9.7624387078       35.9309736235        1.5134958414  W2        6082            0.0000000000
     18245      6082  TIP3      H1             -9.3999687078       36.7855336235        1.2799358414  W2        6082            0.0000000000
     18246      6082  TIP3      H2             -9.2309187078       35.6391336235        2.2541258414  W2        6082            0.0000000000
     18247      6083  TIP3      OH2           -11.5940187078       36.8033736235       -5.2563941586  W2        6083            0.0000000000
     18248      6083  TIP3      H1            -12.5439687078       36.9091136235       -5.2050641586  W2        6083            0.0000000000
     18249      6083  TIP3      H2            -11.2422087078       37.6241136235       -4.9116441586  W2        6083            0.0000000000
     18250      6084  TIP3      OH2            -6.2183587078       32.0300436235        1.2140558414  W2        6084            0.0000000000
     18251      6084  TIP3      H1             -6.6442287078       31.8022136235        2.0404558414  W2        6084            0.0000000000
     18252      6084  TIP3      H2             -5.6377787078       31.2912236235        1.0315858414  W2        6084            0.0000000000
     18253      6085  TIP3      OH2            -4.0154687078       32.9590936235       -9.7120441586  W2        6085            0.0000000000
     18254      6085  TIP3      H1             -3.6621587078       32.5790736235       -8.9076941586  W2        6085            0.0000000000
     18255      6085  TIP3      H2             -4.9641187078       32.8655736235       -9.6251141586  W2        6085            0.0000000000
     18256      6086  TIP3      OH2            -3.5599387078       36.5819936235        3.6835358414  W2        6086            0.0000000000
     18257      6086  TIP3      H1             -4.1616187078       36.0262836235        3.1881658414  W2        6086            0.0000000000
     18258      6086  TIP3      H2             -3.2785687078       37.2489736235        3.0572758414  W2        6086            0.0000000000
     18259      6087  TIP3      OH2           -15.4373487078       23.8147636235        3.0907958414  W2        6087            0.0000000000
     18260      6087  TIP3      H1            -16.3301187078       24.1533036235        3.0231958414  W2        6087            0.0000000000
     18261      6087  TIP3      H2            -15.5360687078       22.9593736235        3.5088758414  W2        6087            0.0000000000
     18262      6088  TIP3      OH2            -3.1495387078       31.6312936235       -7.4852541586  W2        6088            0.0000000000
     18263      6088  TIP3      H1             -3.4267787078       30.9032236235       -6.9291441586  W2        6088            0.0000000000
     18264      6088  TIP3      H2             -2.2222387078       31.7504936235       -7.2799941586  W2        6088            0.0000000000
     18265      6089  TIP3      OH2           -15.7861487078       35.6192036235        1.5257358414  W2        6089            0.0000000000
     18266      6089  TIP3      H1            -15.5691187078       34.6874436235        1.4947058414  W2        6089            0.0000000000
     18267      6089  TIP3      H2            -15.5397987078       35.8937036235        2.4090158414  W2        6089            0.0000000000
     18268      6090  TIP3      OH2            -9.9246887078       34.0707036235      -11.2650441586  W2        6090            0.0000000000
     18269      6090  TIP3      H1             -9.6857087078       33.3225136235      -11.8121541586  W2        6090            0.0000000000
     18270      6090  TIP3      H2            -10.1935587078       33.6828736235      -10.4322641586  W2        6090            0.0000000000
     18271      6091  TIP3      OH2           -10.9876287078       33.6410836235       -8.8087841586  W2        6091            0.0000000000
     18272      6091  TIP3      H1            -10.8408287078       33.1210636235       -8.0186941586  W2        6091            0.0000000000
     18273      6091  TIP3      H2            -10.9904587078       34.5478436235       -8.5021941586  W2        6091            0.0000000000
     18274      6092  TIP3      OH2           -14.5345187078       30.8934136235       -8.2982441586  W2        6092            0.0000000000
     18275      6092  TIP3      H1            -15.2205887078       31.2456636235       -7.7312741586  W2        6092            0.0000000000
     18276      6092  TIP3      H2            -14.0117287078       31.6563736235       -8.5448141586  W2        6092            0.0000000000
     18277      6093  TIP3      OH2            -6.7030087078       23.5557936235        1.9806558414  W2        6093            0.0000000000
     18278      6093  TIP3      H1             -6.0042187078       23.6296636235        2.6306258414  W2        6093            0.0000000000
     18279      6093  TIP3      H2             -7.0838687078       22.6912936235        2.1349458414  W2        6093            0.0000000000
     18280      6094  TIP3      OH2            -5.9185187078       23.2079636235       -6.9221141586  W2        6094            0.0000000000
     18281      6094  TIP3      H1             -5.6986887078       23.6795036235       -7.7255741586  W2        6094            0.0000000000
     18282      6094  TIP3      H2             -5.3601187078       23.6022236235       -6.2520541586  W2        6094            0.0000000000
     18283      6095  TIP3      OH2            -8.2499087078       35.3384436235       -8.0593641586  W2        6095            0.0000000000
     18284      6095  TIP3      H1             -9.0662987078       35.8354136235       -8.0069341586  W2        6095            0.0000000000
     18285      6095  TIP3      H2             -7.7202787078       35.8137936235       -8.6994841586  W2        6095            0.0000000000
     18286      6096  TIP3      OH2            -8.7185287078       24.9358436235       -6.0872741586  W2        6096            0.0000000000
     18287      6096  TIP3      H1             -7.9062687078       25.4401636235       -6.0411041586  W2        6096            0.0000000000
     18288      6096  TIP3      H2             -8.9632287078       24.7908136235       -5.1733141586  W2        6096            0.0000000000
     18289      6097  TIP3      OH2            -8.1828887078       25.9221136235        3.0973858414  W2        6097            0.0000000000
     18290      6097  TIP3      H1             -8.0638587078       26.4956536235        3.8544258414  W2        6097            0.0000000000
     18291      6097  TIP3      H2             -7.5274287078       25.2340536235        3.2121658414  W2        6097            0.0000000000
     18292      6098  TIP3      OH2            -7.8348587078       22.0171436235       -5.1491641586  W2        6098            0.0000000000
     18293      6098  TIP3      H1             -8.1815087078       22.6342036235       -4.5047341586  W2        6098            0.0000000000
     18294      6098  TIP3      H2             -7.1761687078       22.5177136235       -5.6306141586  W2        6098            0.0000000000
     18295      6099  TIP3      OH2           -10.9115987078       36.3821636235       -8.0776741586  W2        6099            0.0000000000
     18296      6099  TIP3      H1            -10.7507287078       37.1819136235       -8.5784141586  W2        6099            0.0000000000
     18297      6099  TIP3      H2            -11.1088187078       36.6887636235       -7.1926141586  W2        6099            0.0000000000
     18298      6100  TIP3      OH2           -12.1771587078       23.0800836235       -8.4619141586  W2        6100            0.0000000000
     18299      6100  TIP3      H1            -12.2606787078       23.9683936235       -8.1152741586  W2        6100            0.0000000000
     18300      6100  TIP3      H2            -11.2871287078       22.8147536235       -8.2302341586  W2        6100            0.0000000000
     18301      6101  TIP3      OH2            -1.9783087078       23.8291436235        3.9323558414  W2        6101            0.0000000000
     18302      6101  TIP3      H1             -2.8947287078       24.0913136235        3.8447258414  W2        6101            0.0000000000
     18303      6101  TIP3      H2             -1.6428087078       23.8260436235        3.0358858414  W2        6101            0.0000000000
     18304      6102  TIP3      OH2            -3.3762087078       27.5792436235       -1.9719141586  W2        6102            0.0000000000
     18305      6102  TIP3      H1             -4.1737687078       27.1642636235       -2.3004141586  W2        6102            0.0000000000
     18306      6102  TIP3      H2             -2.9310987078       26.8886136235       -1.4808641586  W2        6102            0.0000000000
     18307      6103  TIP3      OH2           -13.9186287078       33.5073036235       -9.4014641586  W2        6103            0.0000000000
     18308      6103  TIP3      H1            -13.3264787078       34.2067836235       -9.1252241586  W2        6103            0.0000000000
     18309      6103  TIP3      H2            -13.4593287078       33.0742536235      -10.1210041586  W2        6103            0.0000000000
     18310      6104  TIP3      OH2           -15.6027087078       26.1716036235      -10.2855241586  W2        6104            0.0000000000
     18311      6104  TIP3      H1            -15.6474487078       27.1109136235      -10.1068241586  W2        6104            0.0000000000
     18312      6104  TIP3      H2            -16.4903887078       25.9360936235      -10.5553141586  W2        6104            0.0000000000
     18313      6105  TIP3      OH2           -14.7945087078       20.9532636235       -1.6124241586  W2        6105            0.0000000000
     18314      6105  TIP3      H1            -15.0235287078       21.0125136235       -2.5399241586  W2        6105            0.0000000000
     18315      6105  TIP3      H2            -15.2371687078       20.1618136235       -1.3060141586  W2        6105            0.0000000000
     18316      6106  TIP3      OH2           -15.8641787078       34.8939736235       -5.4518441586  W2        6106            0.0000000000
     18317      6106  TIP3      H1            -16.6963187078       35.3662436235       -5.4247041586  W2        6106            0.0000000000
     18318      6106  TIP3      H2            -15.3183487078       35.4037336235       -6.0505341586  W2        6106            0.0000000000
     18319      6107  TIP3      OH2           -11.9784687078       36.4257836235        7.4983758414  W2        6107            0.0000000000
     18320      6107  TIP3      H1            -11.2107487078       35.9668636235        7.8392958414  W2        6107            0.0000000000
     18321      6107  TIP3      H2            -11.9998487078       36.1997636235        6.5684958414  W2        6107            0.0000000000
     18322      6108  TIP3      OH2            -7.8865087078       35.9338436235      -11.1264441586  W2        6108            0.0000000000
     18323      6108  TIP3      H1             -8.5304087078       35.3027036235      -10.8050741586  W2        6108            0.0000000000
     18324      6108  TIP3      H2             -7.1246787078       35.4026436235      -11.3580941586  W2        6108            0.0000000000
     18325      6109  TIP3      OH2            -5.4015987078       34.8058936235        6.2275258414  W2        6109            0.0000000000
     18326      6109  TIP3      H1             -5.7526487078       33.9491936235        6.4705658414  W2        6109            0.0000000000
     18327      6109  TIP3      H2             -4.6752787078       34.9485636235        6.8344258414  W2        6109            0.0000000000
     18328      6110  TIP3      OH2            -3.2822187078       35.7508336235      -10.8926441586  W2        6110            0.0000000000
     18329      6110  TIP3      H1             -2.9991787078       34.9563536235      -10.4399541586  W2        6110            0.0000000000
     18330      6110  TIP3      H2             -2.5424287078       35.9839336235      -11.4535341586  W2        6110            0.0000000000
     18331      6111  TIP3      OH2           -16.6688587078       31.3167536235        6.8323858414  W2        6111            0.0000000000
     18332      6111  TIP3      H1            -16.5248087078       30.4148236235        6.5460558414  W2        6111            0.0000000000
     18333      6111  TIP3      H2            -17.4411187078       31.6029636235        6.3446158414  W2        6111            0.0000000000
     18334      6112  TIP3      OH2           -12.3274887078       31.6603236235      -11.0351541586  W2        6112            0.0000000000
     18335      6112  TIP3      H1            -12.2630787078       30.8662836235      -10.5045141586  W2        6112            0.0000000000
     18336      6112  TIP3      H2            -11.6745687078       31.5416036235      -11.7249541586  W2        6112            0.0000000000
     18337      6113  TIP3      OH2           -10.0132487078       31.2865636235        6.2650258414  W2        6113            0.0000000000
     18338      6113  TIP3      H1            -10.3418687078       31.5573736235        5.4077658414  W2        6113            0.0000000000
     18339      6113  TIP3      H2             -9.8614287078       30.3455436235        6.1775258414  W2        6113            0.0000000000
     18340      6114  TIP3      OH2            -6.9751487078       32.7074936235      -11.2993541586  W2        6114            0.0000000000
     18341      6114  TIP3      H1             -7.2437387078       32.8877036235      -10.3984641586  W2        6114            0.0000000000
     18342      6114  TIP3      H2             -7.1815887078       31.7821136235      -11.4307741586  W2        6114            0.0000000000
     18343      6115  TIP3      OH2            -4.2787287078       31.2022936235        3.6482558414  W2        6115            0.0000000000
     18344      6115  TIP3      H1             -3.5332487078       31.7906636235        3.5286558414  W2        6115            0.0000000000
     18345      6115  TIP3      H2             -5.0360487078       31.7842636235        3.7115658414  W2        6115            0.0000000000
     18346      6116  TIP3      OH2           -15.8362087078       28.5170836235        6.2523158414  W2        6116            0.0000000000
     18347      6116  TIP3      H1            -15.4280887078       27.6597436235        6.1313758414  W2        6116            0.0000000000
     18348      6116  TIP3      H2            -16.0964487078       28.5312136235        7.1733458414  W2        6116            0.0000000000
     18349      6117  TIP3      OH2           -11.1781087078       29.6329436235       -8.7293541586  W2        6117            0.0000000000
     18350      6117  TIP3      H1            -11.6379087078       29.1487736235       -8.0435041586  W2        6117            0.0000000000
     18351      6117  TIP3      H2            -10.9232387078       28.9644836235       -9.3653041586  W2        6117            0.0000000000
     18352      6118  TIP3      OH2           -11.8891787078       27.5256536235        3.6266058414  W2        6118            0.0000000000
     18353      6118  TIP3      H1            -12.5075687078       28.2003136235        3.9070758414  W2        6118            0.0000000000
     18354      6118  TIP3      H2            -11.5450587078       27.8470436235        2.7932258414  W2        6118            0.0000000000
     18355      6119  TIP3      OH2           -10.1070687078       27.8761236235      -10.4670341586  W2        6119            0.0000000000
     18356      6119  TIP3      H1            -10.2875687078       27.7212436235      -11.3942041586  W2        6119            0.0000000000
     18357      6119  TIP3      H2             -9.1570187078       27.9839936235      -10.4222441586  W2        6119            0.0000000000
     18358      6120  TIP3      OH2            -6.8693587078       29.9971836235        6.9040858414  W2        6120            0.0000000000
     18359      6120  TIP3      H1             -5.9162387078       30.0810936235        6.8766858414  W2        6120            0.0000000000
     18360      6120  TIP3      H2             -7.0298987078       29.2853636235        7.5235758414  W2        6120            0.0000000000
     18361      6121  TIP3      OH2            -0.7172387078       30.2305436235      -11.0212241586  W2        6121            0.0000000000
     18362      6121  TIP3      H1             -0.9907587078       29.8060936235      -11.8343941586  W2        6121            0.0000000000
     18363      6121  TIP3      H2             -0.6778287078       31.1619936235      -11.2381841586  W2        6121            0.0000000000
     18364      6122  TIP3      OH2           -11.5498087078       24.8807336235        4.7089158414  W2        6122            0.0000000000
     18365      6122  TIP3      H1            -11.3997187078       24.1518636235        4.1068858414  W2        6122            0.0000000000
     18366      6122  TIP3      H2            -11.5475687078       25.6579036235        4.1501358414  W2        6122            0.0000000000
     18367      6123  TIP3      OH2           -11.1372387078       23.2503136235        2.2016558414  W2        6123            0.0000000000
     18368      6123  TIP3      H1            -10.6014887078       23.7019836235        1.5495858414  W2        6123            0.0000000000
     18369      6123  TIP3      H2            -11.9892787078       23.1422936235        1.7790658414  W2        6123            0.0000000000
     18370      6124  TIP3      OH2            -9.5553987078       28.6899336235        2.4411758414  W2        6124            0.0000000000
     18371      6124  TIP3      H1             -8.8049187078       28.5336836235        1.8679558414  W2        6124            0.0000000000
     18372      6124  TIP3      H2             -9.8945687078       29.5415936235        2.1657258414  W2        6124            0.0000000000
     18373      6125  TIP3      OH2            -5.1397787078       26.5051136235        7.4697058414  W2        6125            0.0000000000
     18374      6125  TIP3      H1             -4.9476487078       25.5740536235        7.3581558414  W2        6125            0.0000000000
     18375      6125  TIP3      H2             -4.2821487078       26.9300636235        7.4592458414  W2        6125            0.0000000000
     18376      6126  TIP3      OH2            -3.8230587078       29.2936336235        5.5469758414  W2        6126            0.0000000000
     18377      6126  TIP3      H1             -4.1045587078       30.0030936235        4.9693558414  W2        6126            0.0000000000
     18378      6126  TIP3      H2             -2.8806287078       29.2209336235        5.3960958414  W2        6126            0.0000000000
     18379      6127  TIP3      OH2           -13.0711787078       26.0790836235        6.6204758414  W2        6127            0.0000000000
     18380      6127  TIP3      H1            -13.8382787078       25.5465636235        6.4102358414  W2        6127            0.0000000000
     18381      6127  TIP3      H2            -12.3922787078       25.7691236235        6.0211058414  W2        6127            0.0000000000
     18382      6128  TIP3      OH2           -10.3316887078       20.7068836235        2.6330158414  W2        6128            0.0000000000
     18383      6128  TIP3      H1            -10.4297287078       21.6532036235        2.5276358414  W2        6128            0.0000000000
     18384      6128  TIP3      H2            -11.0740687078       20.3342636235        2.1573658414  W2        6128            0.0000000000
     18385      6129  TIP3      OH2            -9.0676387078       25.0284236235        6.1968558414  W2        6129            0.0000000000
     18386      6129  TIP3      H1             -9.3030987078       24.8090936235        7.0983458414  W2        6129            0.0000000000
     18387      6129  TIP3      H2             -9.8509487078       24.8215436235        5.6871058414  W2        6129            0.0000000000
     18388      6130  TIP3      OH2            -6.3519787078       24.1557736235        5.2722058414  W2        6130            0.0000000000
     18389      6130  TIP3      H1             -7.2994387078       24.1877436235        5.4045358414  W2        6130            0.0000000000
     18390      6130  TIP3      H2             -6.0393087078       23.5304836235        5.9260258414  W2        6130            0.0000000000
     18391      6131  TIP3      OH2            -4.7178287078       22.7898836235        7.2773958414  W2        6131            0.0000000000
     18392      6131  TIP3      H1             -4.8146487078       21.8376136235        7.2715858414  W2        6131            0.0000000000
     18393      6131  TIP3      H2             -5.0395187078       23.0585636235        8.1379458414  W2        6131            0.0000000000
     18394      6132  TIP3      OH2           -14.8908987078       23.9994636235        6.3249458414  W2        6132            0.0000000000
     18395      6132  TIP3      H1            -14.6791587078       23.2930736235        5.7146958414  W2        6132            0.0000000000
     18396      6132  TIP3      H2            -15.0021487078       23.5620636235        7.1690658414  W2        6132            0.0000000000
     18397      6133  TIP3      OH2           -10.1098787078       20.0006236235        5.3042958414  W2        6133            0.0000000000
     18398      6133  TIP3      H1             -9.3980387078       19.3608436235        5.2902058414  W2        6133            0.0000000000
     18399      6133  TIP3      H2            -10.2108387078       20.2674536235        4.3906058414  W2        6133            0.0000000000
     18400      6134  TIP3      OH2            -9.7561287078       21.6834636235        7.3579258414  W2        6134            0.0000000000
     18401      6134  TIP3      H1             -9.8879087078       21.2078436235        6.5377758414  W2        6134            0.0000000000
     18402      6134  TIP3      H2            -10.3553887078       22.4278236235        7.3026358414  W2        6134            0.0000000000
     18403      6135  TIP3      OH2           -16.6414087078       33.2028736235       -9.9828641586  W2        6135            0.0000000000
     18404      6135  TIP3      H1            -15.7274887078       33.2817636235       -9.7094741586  W2        6135            0.0000000000
     18405      6135  TIP3      H2            -16.6340987078       32.5158336235      -10.6493041586  W2        6135            0.0000000000
     18406      6136  TIP3      OH2           -17.1224287078       36.6764236235       -3.1008541586  W2        6136            0.0000000000
     18407      6136  TIP3      H1            -17.4567487078       35.7961536235       -2.9288341586  W2        6136            0.0000000000
     18408      6136  TIP3      H2            -16.9001887078       37.0219236235       -2.2362941586  W2        6136            0.0000000000
     18409      6137  TIP3      OH2            -1.5599287078       32.8429836235        7.4395658414  W2        6137            0.0000000000
     18410      6137  TIP3      H1             -2.4258187078       32.7379536235        7.8337958414  W2        6137            0.0000000000
     18411      6137  TIP3      H2             -1.1833387078       33.6013136235        7.8860358414  W2        6137            0.0000000000
     18412      6138  TIP3      OH2            -0.2589587078       31.0993536235       -7.0461841586  W2        6138            0.0000000000
     18413      6138  TIP3      H1              0.5911812922       31.5204436235       -6.9190241586  W2        6138            0.0000000000
     18414      6138  TIP3      H2             -0.2534487078       30.3593636235       -6.4390441586  W2        6138            0.0000000000
     18415      6139  TIP3      OH2             0.1356012922       29.1530936235       -5.2226141586  W2        6139            0.0000000000
     18416      6139  TIP3      H1             -0.5909387078       28.6733536235       -4.8248541586  W2        6139            0.0000000000
     18417      6139  TIP3      H2              0.7169312922       29.3585636235       -4.4904541586  W2        6139            0.0000000000
     18418      6140  TIP3      OH2            -0.1052787078       31.9378436235       -0.2748541586  W2        6140            0.0000000000
     18419      6140  TIP3      H1              0.7281412922       31.5598436235       -0.5554941586  W2        6140            0.0000000000
     18420      6140  TIP3      H2              0.0067512922       32.8809636235       -0.3939441586  W2        6140            0.0000000000
     18421      6141  TIP3      OH2            -1.6190487078       34.8155936235        2.0319858414  W2        6141            0.0000000000
     18422      6141  TIP3      H1             -2.2665187078       35.1407436235        2.6575058414  W2        6141            0.0000000000
     18423      6141  TIP3      H2             -2.1366487078       34.3753636235        1.3578158414  W2        6141            0.0000000000
     18424      6142  TIP3      OH2             0.4039112922       29.0539436235       -8.8314841586  W2        6142            0.0000000000
     18425      6142  TIP3      H1             -0.1179787078       29.4103536235       -9.5503941586  W2        6142            0.0000000000
     18426      6142  TIP3      H2              0.3708312922       29.7287236235       -8.1533941586  W2        6142            0.0000000000
     18427      6143  TIP3      OH2            -1.2471887078       26.2935036235      -10.2807741586  W2        6143            0.0000000000
     18428      6143  TIP3      H1             -1.1507487078       26.9602036235      -10.9608041586  W2        6143            0.0000000000
     18429      6143  TIP3      H2             -1.3872287078       25.4781336235      -10.7622241586  W2        6143            0.0000000000
     18430      6144  TIP3      OH2            -2.0777187078       27.6737436235       -4.6597441586  W2        6144            0.0000000000
     18431      6144  TIP3      H1             -2.2278387078       26.7286036235       -4.6799641586  W2        6144            0.0000000000
     18432      6144  TIP3      H2             -2.4312687078       27.9548836235       -3.8158341586  W2        6144            0.0000000000
     18433      6145  TIP3      OH2           -17.0424787078       29.7519636235       -0.6493641586  W2        6145            0.0000000000
     18434      6145  TIP3      H1            -16.8581887078       29.6701336235       -1.5850741586  W2        6145            0.0000000000
     18435      6145  TIP3      H2            -16.1931887078       29.6276636235       -0.2257241586  W2        6145            0.0000000000
     18436      6146  TIP3      OH2            -1.2214287078       29.6440736235        4.9790858414  W2        6146            0.0000000000
     18437      6146  TIP3      H1             -0.6386987078       28.9093036235        5.1708058414  W2        6146            0.0000000000
     18438      6146  TIP3      H2             -0.6574987078       30.4161036235        5.0256658414  W2        6146            0.0000000000
     18439      6147  TIP3      OH2             0.2752812922       27.5466536235        5.6636258414  W2        6147            0.0000000000
     18440      6147  TIP3      H1             -0.5880487078       27.1678636235        5.4980958414  W2        6147            0.0000000000
     18441      6147  TIP3      H2              0.8796512922       26.8081336235        5.5892058414  W2        6147            0.0000000000
     18442      6148  TIP3      OH2            -1.9998087078       23.7014836235      -11.1632241586  W2        6148            0.0000000000
     18443      6148  TIP3      H1             -1.3892287078       23.3301636235      -10.5264041586  W2        6148            0.0000000000
     18444      6148  TIP3      H2             -2.8366587078       23.2801736235      -10.9672241586  W2        6148            0.0000000000
     18445      6149  TIP3      OH2            -2.3672387078       25.2563236235       -6.1972341586  W2        6149            0.0000000000
     18446      6149  TIP3      H1             -2.0875287078       24.3493636235       -6.0730641586  W2        6149            0.0000000000
     18447      6149  TIP3      H2             -1.6080687078       25.6904736235       -6.5863141586  W2        6149            0.0000000000
     18448      6150  TIP3      OH2            -1.7554087078       25.8380636235       -0.7613441586  W2        6150            0.0000000000
     18449      6150  TIP3      H1             -0.8226087078       26.0500536235       -0.7957441586  W2        6150            0.0000000000
     18450      6150  TIP3      H2             -1.9906587078       25.9392736235        0.1609558414  W2        6150            0.0000000000
     18451      6151  TIP3      OH2            -1.7262187078       26.5745936235        2.0145958414  W2        6151            0.0000000000
     18452      6151  TIP3      H1             -2.5690887078       26.8426336235        2.3805758414  W2        6151            0.0000000000
     18453      6151  TIP3      H2             -1.2837887078       27.3967836235        1.8037058414  W2        6151            0.0000000000
     18454      6152  TIP3      OH2           -17.4449987078       25.0224636235        5.4915158414  W2        6152            0.0000000000
     18455      6152  TIP3      H1            -16.5255087078       24.9002936235        5.7278258414  W2        6152            0.0000000000
     18456      6152  TIP3      H2            -17.8945487078       24.2724336235        5.8808658414  W2        6152            0.0000000000
     18457      6153  TIP3      OH2             0.5569412922       20.5546136235        7.3680958414  W2        6153            0.0000000000
     18458      6153  TIP3      H1              0.9066412922       19.9009636235        6.7625658414  W2        6153            0.0000000000
     18459      6153  TIP3      H2              0.7038912922       21.3920236235        6.9283558414  W2        6153            0.0000000000
     18460      6154  TIP3      OH2            -1.7537587078       22.5192536235       -6.1490341586  W2        6154            0.0000000000
     18461      6154  TIP3      H1             -1.5712587078       22.0704036235       -5.3235341586  W2        6154            0.0000000000
     18462      6154  TIP3      H2             -2.3534687078       21.9346936235       -6.6125741586  W2        6154            0.0000000000
     18463      6155  TIP3      OH2           -16.2237487078       23.3346236235       -1.6171941586  W2        6155            0.0000000000
     18464      6155  TIP3      H1            -15.7785887078       22.5428736235       -1.3152241586  W2        6155            0.0000000000
     18465      6155  TIP3      H2            -15.7574487078       24.0511436235       -1.1866341586  W2        6155            0.0000000000
     18466      6156  TIP3      OH2           -17.9197187078       26.3339236235       -0.5481741586  W2        6156            0.0000000000
     18467      6156  TIP3      H1            -17.4277387078       26.1129736235       -1.3389741586  W2        6156            0.0000000000
     18468      6156  TIP3      H2            -17.5576287078       27.1742636235       -0.2672241586  W2        6156            0.0000000000
     18469      6157  TIP3      OH2             0.0766612922       22.6640736235        5.7172258414  W2        6157            0.0000000000
     18470      6157  TIP3      H1             -0.8407687078       22.9347836235        5.6815758414  W2        6157            0.0000000000
     18471      6157  TIP3      H2              0.1996012922       22.1289136235        4.9331958414  W2        6157            0.0000000000
     18472      6158  TIP3      OH2             0.1128612922       22.5870636235       -9.6210041586  W2        6158            0.0000000000
     18473      6158  TIP3      H1              0.5251212922       21.8656336235      -10.0962041586  W2        6158            0.0000000000
     18474      6158  TIP3      H2              0.7945112922       23.2565236235       -9.5625741586  W2        6158            0.0000000000
     18475      6159  TIP3      OH2           -17.6060687078       22.5918336235       -6.4939341586  W2        6159            0.0000000000
     18476      6159  TIP3      H1            -18.5312287078       22.8004936235       -6.6233841586  W2        6159            0.0000000000
     18477      6159  TIP3      H2            -17.1520787078       23.0759136235       -7.1837041586  W2        6159            0.0000000000
     18478      6160  TIP3      OH2           -17.6425287078       21.3297336235        1.8503158414  W2        6160            0.0000000000
     18479      6160  TIP3      H1            -18.3074787078       21.0837636235        2.4934058414  W2        6160            0.0000000000
     18480      6160  TIP3      H2            -18.0853987078       21.9517736235        1.2731158414  W2        6160            0.0000000000
     18481      6161  TIP3      OH2           -15.4505987078       34.5051436235        5.9948958414  W2        6161            0.0000000000
     18482      6161  TIP3      H1            -16.2713487078       34.6797936235        5.5343658414  W2        6161            0.0000000000
     18483      6161  TIP3      H2            -15.7028187078       34.4316136235        6.9153358414  W2        6161            0.0000000000
     18484      6162  TIP3      OH2           -12.4963087078       35.4792636235        2.2532958414  W2        6162            0.0000000000
     18485      6162  TIP3      H1            -12.9211987078       36.2891136235        1.9707558414  W2        6162            0.0000000000
     18486      6162  TIP3      H2            -11.5920287078       35.5646736235        1.9512758414  W2        6162            0.0000000000
     18487      6163  TIP3      OH2            -0.9227487078       20.7537036235        3.5363058414  W2        6163            0.0000000000
     18488      6163  TIP3      H1             -1.7353987078       21.0787336235        3.1487758414  W2        6163            0.0000000000
     18489      6163  TIP3      H2             -0.6898987078       19.9935536235        3.0032158414  W2        6163            0.0000000000
     18490      6164  TIP3      OH2           -13.5385187078       36.0687736235       -2.1340041586  W2        6164            0.0000000000
     18491      6164  TIP3      H1            -13.7574487078       35.1525136235       -1.9644041586  W2        6164            0.0000000000
     18492      6164  TIP3      H2            -12.7142987078       36.2088136235       -1.6678641586  W2        6164            0.0000000000
     18493      6165  TIP3      OH2           -11.0012687078       36.5387036235       -1.2852041586  W2        6165            0.0000000000
     18494      6165  TIP3      H1            -10.7886987078       35.6506036235       -1.5721141586  W2        6165            0.0000000000
     18495      6165  TIP3      H2            -10.9367587078       36.5044736235       -0.3308041586  W2        6165            0.0000000000
     18496      6166  TIP3      OH2            -7.4928987078       22.2027636235       -2.1408741586  W2        6166            0.0000000000
     18497      6166  TIP3      H1             -8.1672187078       21.5733236235       -1.8852941586  W2        6166            0.0000000000
     18498      6166  TIP3      H2             -6.9289787078       21.7186536235       -2.7440841586  W2        6166            0.0000000000
     18499      6167  TIP3      OH2            -2.3501787078       20.3101636235       -2.0281641586  W2        6167            0.0000000000
     18500      6167  TIP3      H1             -1.7464187078       20.8577036235       -2.5300641586  W2        6167            0.0000000000
     18501      6167  TIP3      H2             -3.2199787078       20.6292036235       -2.2687541586  W2        6167            0.0000000000
     18502      6168  TIP3      OH2            -0.6231387078       21.4490336235       -3.6950741586  W2        6168            0.0000000000
     18503      6168  TIP3      H1             -0.0113887078       20.9346036235       -4.2217141586  W2        6168            0.0000000000
     18504      6168  TIP3      H2             -0.2407987078       22.3262436235       -3.6716341586  W2        6168            0.0000000000
     18505      6169  TIP3      OH2           -15.1661487078       20.8367936235       -4.3188841586  W2        6169            0.0000000000
     18506      6169  TIP3      H1            -15.9431687078       20.6022836235       -4.8262941586  W2        6169            0.0000000000
     18507      6169  TIP3      H2            -14.6357887078       20.0400036235       -4.3100841586  W2        6169            0.0000000000
     18508      6170  TIP3      OH2           -16.3298087078       20.6346036235       -8.5152741586  W2        6170            0.0000000000
     18509      6170  TIP3      H1            -15.8907387078       21.2456536235       -9.1069241586  W2        6170            0.0000000000
     18510      6170  TIP3      H2            -16.9635687078       21.1730136235       -8.0412741586  W2        6170            0.0000000000
     18511      6171  TIP3      OH2           -10.5868887078       20.7635036235       -4.5055741586  W2        6171            0.0000000000
     18512      6171  TIP3      H1             -9.7125487078       21.1519336235       -4.5351441586  W2        6171            0.0000000000
     18513      6171  TIP3      H2            -10.7228087078       20.5482836235       -3.5828541586  W2        6171            0.0000000000
     18514      6172  TIP3      OH2            -5.0300487078       20.7934836235       -2.8564041586  W2        6172            0.0000000000
     18515      6172  TIP3      H1             -4.9538887078       20.8886436235       -3.8058041586  W2        6172            0.0000000000
     18516      6172  TIP3      H2             -5.3051287078       19.8857736235       -2.7274941586  W2        6172            0.0000000000
     18517      6173  TIP3      OH2            -3.6767887078       20.8192636235       -7.1639041586  W2        6173            0.0000000000
     18518      6173  TIP3      H1             -4.3796787078       21.4341836235       -7.3737641586  W2        6173            0.0000000000
     18519      6173  TIP3      H2             -4.1216487078       19.9819336235       -7.0328141586  W2        6173            0.0000000000
     18520      6174  TIP3      OH2           -16.4288587078       36.5828236235       -7.6177641586  W2        6174            0.0000000000
     18521      6174  TIP3      H1            -17.1138687078       36.5447136235       -8.2852541586  W2        6174            0.0000000000
     18522      6174  TIP3      H2            -16.4251387078       37.4955836235       -7.3295541586  W2        6174            0.0000000000
     18523      6175  TIP3      OH2           -14.4688987078       22.5507536235      -10.0728641586  W2        6175            0.0000000000
     18524      6175  TIP3      H1            -13.9775587078       21.9209936235      -10.6003141586  W2        6175            0.0000000000
     18525      6175  TIP3      H2            -13.8452687078       22.8466936235       -9.4097441586  W2        6175            0.0000000000
     18526      6176  TIP3      OH2            -9.4428887078       22.8439036235       -7.6158141586  W2        6176            0.0000000000
     18527      6176  TIP3      H1             -9.2647587078       22.1972236235       -6.9329541586  W2        6176            0.0000000000
     18528      6176  TIP3      H2             -9.4962687078       23.6776736235       -7.1487041586  W2        6176            0.0000000000
     18529      6177  TIP3      OH2           -15.2083487078       21.3509836235        5.1987358414  W2        6177            0.0000000000
     18530      6177  TIP3      H1            -15.5745287078       20.5852436235        5.6412058414  W2        6177            0.0000000000
     18531      6177  TIP3      H2            -14.2954987078       21.3800036235        5.4852458414  W2        6177            0.0000000000
     18532      6178  TIP3      OH2           -13.2352687078       20.7014236235        6.7344458414  W2        6178            0.0000000000
     18533      6178  TIP3      H1            -12.3369087078       20.4274436235        6.5497858414  W2        6178            0.0000000000
     18534      6178  TIP3      H2            -13.6219587078       19.9590236235        7.1987058414  W2        6178            0.0000000000
     18535      6179  TIP3      OH2            -4.8140387078       20.0339536235        6.9167258414  W2        6179            0.0000000000
     18536      6179  TIP3      H1             -4.7373187078       19.6080236235        7.7704958414  W2        6179            0.0000000000
     18537      6179  TIP3      H2             -3.9203787078       20.0474236235        6.5740758414  W2        6179            0.0000000000
     18538      6180  TIP3      OH2            -1.6379287078       36.1065836235        5.6091458414  W2        6180            0.0000000000
     18539      6180  TIP3      H1             -2.4197387078       35.9203836235        5.0892058414  W2        6180            0.0000000000
     18540      6180  TIP3      H2             -1.7099387078       37.0360136235        5.8263958414  W2        6180            0.0000000000
     18541      6181  TIP3      OH2            12.7681112922       29.9930236235       -4.3601341586  W2        6181            0.0000000000
     18542      6181  TIP3      H1             12.8572212922       30.9368436235       -4.4924241586  W2        6181            0.0000000000
     18543      6181  TIP3      H2             12.1298712922       29.7176636235       -5.0181941586  W2        6181            0.0000000000
     18544      6182  TIP3      OH2            11.7012412922       29.2480936235       -0.9413141586  W2        6182            0.0000000000
     18545      6182  TIP3      H1             11.6629912922       28.6017236235       -0.2363541586  W2        6182            0.0000000000
     18546      6182  TIP3      H2             11.3788912922       28.7815336235       -1.7124441586  W2        6182            0.0000000000
     18547      6183  TIP3      OH2             4.0697412922       28.8623036235        0.6516758414  W2        6183            0.0000000000
     18548      6183  TIP3      H1              4.1109512922       28.2366336235        1.3749158414  W2        6183            0.0000000000
     18549      6183  TIP3      H2              4.7725112922       29.4861636235        0.8337158414  W2        6183            0.0000000000
     18550      6184  TIP3      OH2            15.4072612922       32.1871336235       -2.6398041586  W2        6184            0.0000000000
     18551      6184  TIP3      H1             14.9665312922       31.4667336235       -2.1892441586  W2        6184            0.0000000000
     18552      6184  TIP3      H2             15.3942312922       32.9078536235       -2.0100341586  W2        6184            0.0000000000
     18553      6185  TIP3      OH2             4.9930512922       33.3121936235       -0.8134141586  W2        6185            0.0000000000
     18554      6185  TIP3      H1              4.6235712922       32.5102436235       -1.1829841586  W2        6185            0.0000000000
     18555      6185  TIP3      H2              5.9341612922       33.1436836235       -0.7670741586  W2        6185            0.0000000000
     18556      6186  TIP3      OH2             1.6031012922       26.9724536235       -5.4205341586  W2        6186            0.0000000000
     18557      6186  TIP3      H1              1.1554412922       27.8183236235       -5.4388841586  W2        6186            0.0000000000
     18558      6186  TIP3      H2              1.0422212922       26.3928736235       -5.9360241586  W2        6186            0.0000000000
     18559      6187  TIP3      OH2             2.3137112922       29.1344136235       -3.2947341586  W2        6187            0.0000000000
     18560      6187  TIP3      H1              2.5270612922       28.3645736235       -2.7674341586  W2        6187            0.0000000000
     18561      6187  TIP3      H2              3.0514712922       29.2240836235       -3.8979741586  W2        6187            0.0000000000
     18562      6188  TIP3      OH2            10.0906812922       31.6802336235       -0.5352141586  W2        6188            0.0000000000
     18563      6188  TIP3      H1             10.3944712922       30.9943736235       -1.1298041586  W2        6188            0.0000000000
     18564      6188  TIP3      H2             10.8120812922       31.7991036235        0.0825858414  W2        6188            0.0000000000
     18565      6189  TIP3      OH2            18.7536612922       23.2817636235        0.3254058414  W2        6189            0.0000000000
     18566      6189  TIP3      H1             18.8028812922       23.8918836235        1.0613158414  W2        6189            0.0000000000
     18567      6189  TIP3      H2             19.1791712922       23.7428536235       -0.3974841586  W2        6189            0.0000000000
     18568      6190  TIP3      OH2            13.2313812922       26.0744736235       -0.2077341586  W2        6190            0.0000000000
     18569      6190  TIP3      H1             13.3739712922       25.1281736235       -0.1875741586  W2        6190            0.0000000000
     18570      6190  TIP3      H2             13.1252812922       26.2814536235       -1.1362441586  W2        6190            0.0000000000
     18571      6191  TIP3      OH2             6.3862112922       24.1761136235       -2.9352541586  W2        6191            0.0000000000
     18572      6191  TIP3      H1              6.4293212922       25.0359636235       -3.3536241586  W2        6191            0.0000000000
     18573      6191  TIP3      H2              5.9286212922       23.6235836235       -3.5689341586  W2        6191            0.0000000000
     18574      6192  TIP3      OH2            14.1084812922       24.3066736235       -4.5344241586  W2        6192            0.0000000000
     18575      6192  TIP3      H1             14.7549112922       23.9779936235       -3.9096641586  W2        6192            0.0000000000
     18576      6192  TIP3      H2             14.6184212922       24.8245736235       -5.1572841586  W2        6192            0.0000000000
     18577      6193  TIP3      OH2             3.0063612922       26.5726936235       -2.1731141586  W2        6193            0.0000000000
     18578      6193  TIP3      H1              3.6600212922       26.0228636235       -1.7411041586  W2        6193            0.0000000000
     18579      6193  TIP3      H2              3.0302912922       26.2985936235       -3.0899141586  W2        6193            0.0000000000
     18580      6194  TIP3      OH2             8.1628112922       28.1228236235       -2.9579641586  W2        6194            0.0000000000
     18581      6194  TIP3      H1              8.7789112922       27.5963636235       -2.4485641586  W2        6194            0.0000000000
     18582      6194  TIP3      H2              7.5766912922       27.4826936235       -3.3616041586  W2        6194            0.0000000000
     18583      6195  TIP3      OH2            19.1451212922       24.7596836235        2.5613858414  W2        6195            0.0000000000
     18584      6195  TIP3      H1             18.4565812922       25.4177536235        2.4660458414  W2        6195            0.0000000000
     18585      6195  TIP3      H2             19.1605812922       24.5624736235        3.4979258414  W2        6195            0.0000000000
     18586      6196  TIP3      OH2             5.1964012922       23.0939536235        1.1388258414  W2        6196            0.0000000000
     18587      6196  TIP3      H1              4.9775712922       23.6240136235        0.3724258414  W2        6196            0.0000000000
     18588      6196  TIP3      H2              4.5284912922       23.3205036235        1.7859658414  W2        6196            0.0000000000
     18589      6197  TIP3      OH2            12.5653812922       32.5940636235       -5.3172641586  W2        6197            0.0000000000
     18590      6197  TIP3      H1             12.2698912922       32.2712936235       -6.1685741586  W2        6197            0.0000000000
     18591      6197  TIP3      H2             12.2411612922       33.4937336235       -5.2760041586  W2        6197            0.0000000000
     18592      6198  TIP3      OH2             7.7655412922       30.7695236235        1.4261958414  W2        6198            0.0000000000
     18593      6198  TIP3      H1              7.0254512922       31.3676736235        1.5297158414  W2        6198            0.0000000000
     18594      6198  TIP3      H2              8.4794912922       31.3234836235        1.1105558414  W2        6198            0.0000000000
     18595      6199  TIP3      OH2            15.8723212922       23.5976036235       -2.5538341586  W2        6199            0.0000000000
     18596      6199  TIP3      H1             15.6571212922       22.8319436235       -2.0212341586  W2        6199            0.0000000000
     18597      6199  TIP3      H2             16.5280612922       24.0700636235       -2.0409841586  W2        6199            0.0000000000
     18598      6200  TIP3      OH2             4.7901312922       24.9861336235       -0.9089541586  W2        6200            0.0000000000
     18599      6200  TIP3      H1              5.4037612922       25.6188936235       -0.5357141586  W2        6200            0.0000000000
     18600      6200  TIP3      H2              5.3022012922       24.5136336235       -1.5652641586  W2        6200            0.0000000000
     18601      6201  TIP3      OH2             6.1729712922       32.7338236235        2.2133458414  W2        6201            0.0000000000
     18602      6201  TIP3      H1              6.1677312922       33.6131736235        1.8352758414  W2        6201            0.0000000000
     18603      6201  TIP3      H2              5.3193812922       32.6502336235        2.6383358414  W2        6201            0.0000000000
     18604      6202  TIP3      OH2             2.2940612922       32.4046136235       -7.0047241586  W2        6202            0.0000000000
     18605      6202  TIP3      H1              2.0221512922       32.6337136235       -7.8934341586  W2        6202            0.0000000000
     18606      6202  TIP3      H2              2.3396312922       33.2424936235       -6.5441941586  W2        6202            0.0000000000
     18607      6203  TIP3      OH2            15.9190312922       34.0262036235       -0.2918741586  W2        6203            0.0000000000
     18608      6203  TIP3      H1             14.9774012922       34.0845936235       -0.1301841586  W2        6203            0.0000000000
     18609      6203  TIP3      H2             16.1956412922       34.9322536235       -0.4289041586  W2        6203            0.0000000000
     18610      6204  TIP3      OH2            16.2197312922       22.3127336235        1.1255158414  W2        6204            0.0000000000
     18611      6204  TIP3      H1             15.4836512922       22.9234436235        1.0876458414  W2        6204            0.0000000000
     18612      6204  TIP3      H2             16.9031312922       22.7276336235        0.5991558414  W2        6204            0.0000000000
     18613      6205  TIP3      OH2             9.2228712922       20.3994636235       -1.4086841586  W2        6205            0.0000000000
     18614      6205  TIP3      H1              9.1052912922       19.4510636235       -1.4628541586  W2        6205            0.0000000000
     18615      6205  TIP3      H2              8.3678812922       20.7320736235       -1.1355741586  W2        6205            0.0000000000
     18616      6206  TIP3      OH2            14.1711512922       35.8075536235       -3.6667141586  W2        6206            0.0000000000
     18617      6206  TIP3      H1             14.5963812922       35.1003436235       -4.1517541586  W2        6206            0.0000000000
     18618      6206  TIP3      H2             14.4881512922       36.6088236235       -4.0834941586  W2        6206            0.0000000000
     18619      6207  TIP3      OH2            15.3308012922       33.7084036235       -5.1580541586  W2        6207            0.0000000000
     18620      6207  TIP3      H1             15.0732812922       33.0184136235       -5.7694641586  W2        6207            0.0000000000
     18621      6207  TIP3      H2             15.4018812922       33.2655236235       -4.3124641586  W2        6207            0.0000000000
     18622      6208  TIP3      OH2            17.0168212922       32.2750736235        3.3192958414  W2        6208            0.0000000000
     18623      6208  TIP3      H1             17.1564512922       31.6833236235        2.5799958414  W2        6208            0.0000000000
     18624      6208  TIP3      H2             17.1841012922       33.1476636235        2.9631758414  W2        6208            0.0000000000
     18625      6209  TIP3      OH2            11.4893612922       29.2370236235       -6.9081041586  W2        6209            0.0000000000
     18626      6209  TIP3      H1             10.7779112922       29.7719936235       -7.2600541586  W2        6209            0.0000000000
     18627      6209  TIP3      H2             12.1803212922       29.2922336235       -7.5682141586  W2        6209            0.0000000000
     18628      6210  TIP3      OH2            11.5432812922       27.6944536235       -9.8696041586  W2        6210            0.0000000000
     18629      6210  TIP3      H1             12.2442712922       27.7171436235       -9.2182041586  W2        6210            0.0000000000
     18630      6210  TIP3      H2             11.8455712922       27.0664236235      -10.5256741586  W2        6210            0.0000000000
     18631      6211  TIP3      OH2            18.8587512922       28.6148736235        1.3853358414  W2        6211            0.0000000000
     18632      6211  TIP3      H1             18.2061612922       29.3094336235        1.4744258414  W2        6211            0.0000000000
     18633      6211  TIP3      H2             19.3237812922       28.8249636235        0.5754958414  W2        6211            0.0000000000
     18634      6212  TIP3      OH2            14.8951312922       29.4463536235       -5.9565141586  W2        6212            0.0000000000
     18635      6212  TIP3      H1             14.1632312922       29.6747236235       -5.3834541586  W2        6212            0.0000000000
     18636      6212  TIP3      H2             15.3423512922       28.7326236235       -5.5017641586  W2        6212            0.0000000000
     18637      6213  TIP3      OH2            14.7924812922       27.6206136235        3.1111858414  W2        6213            0.0000000000
     18638      6213  TIP3      H1             14.8723912922       28.3840536235        3.6830358414  W2        6213            0.0000000000
     18639      6213  TIP3      H2             14.1912512922       27.8998536235        2.4206958414  W2        6213            0.0000000000
     18640      6214  TIP3      OH2             6.5405012922       30.0769736235       -4.0740141586  W2        6214            0.0000000000
     18641      6214  TIP3      H1              6.2100212922       29.7063136235       -4.8923141586  W2        6214            0.0000000000
     18642      6214  TIP3      H2              7.1289112922       29.4063736235       -3.7271841586  W2        6214            0.0000000000
     18643      6215  TIP3      OH2             7.9072512922       33.5050336235       -1.3927941586  W2        6215            0.0000000000
     18644      6215  TIP3      H1              7.8123812922       32.9263436235       -2.1493341586  W2        6215            0.0000000000
     18645      6215  TIP3      H2              8.6366112922       33.1336036235       -0.8965141586  W2        6215            0.0000000000
     18646      6216  TIP3      OH2             6.9070512922       28.8455336235       -0.4405141586  W2        6216            0.0000000000
     18647      6216  TIP3      H1              7.4723012922       28.9669536235       -1.2033941586  W2        6216            0.0000000000
     18648      6216  TIP3      H2              7.2259412922       29.4830336235        0.1983358414  W2        6216            0.0000000000
     18649      6217  TIP3      OH2            13.2162712922       34.3487236235        0.2935358414  W2        6217            0.0000000000
     18650      6217  TIP3      H1             12.9759312922       35.0110336235        0.9414558414  W2        6217            0.0000000000
     18651      6217  TIP3      H2             13.0180912922       33.5142436235        0.7184958414  W2        6217            0.0000000000
     18652      6218  TIP3      OH2             7.7871212922       33.2448036235        4.2766758414  W2        6218            0.0000000000
     18653      6218  TIP3      H1              7.4758712922       34.0271236235        4.7319958414  W2        6218            0.0000000000
     18654      6218  TIP3      H2              7.1371412922       33.0917136235        3.5908758414  W2        6218            0.0000000000
     18655      6219  TIP3      OH2            13.7660812922       28.6086436235       -8.2713941586  W2        6219            0.0000000000
     18656      6219  TIP3      H1             14.3456312922       28.7586736235       -7.5245041586  W2        6219            0.0000000000
     18657      6219  TIP3      H2             14.1800812922       29.0793836235       -8.9947541586  W2        6219            0.0000000000
     18658      6220  TIP3      OH2             4.7071112922       29.4429136235        3.5052458414  W2        6220            0.0000000000
     18659      6220  TIP3      H1              4.7774312922       30.0935936235        4.2037458414  W2        6220            0.0000000000
     18660      6220  TIP3      H2              3.8163312922       29.5456636235        3.1703358414  W2        6220            0.0000000000
     18661      6221  TIP3      OH2            11.4925712922       35.3454936235       -4.8360841586  W2        6221            0.0000000000
     18662      6221  TIP3      H1             11.9663312922       35.6411236235       -4.0586641586  W2        6221            0.0000000000
     18663      6221  TIP3      H2             10.9295012922       36.0836536235       -5.0691241586  W2        6221            0.0000000000
     18664      6222  TIP3      OH2             6.0267112922       35.3163036235        5.0400558414  W2        6222            0.0000000000
     18665      6222  TIP3      H1              6.0342412922       35.1802736235        4.0926058414  W2        6222            0.0000000000
     18666      6222  TIP3      H2              5.1107512922       35.1991136235        5.2920558414  W2        6222            0.0000000000
     18667      6223  TIP3      OH2            17.4649212922       20.3586836235       -8.4584241586  W2        6223            0.0000000000
     18668      6223  TIP3      H1             16.5649912922       20.4975836235       -8.1633641586  W2        6223            0.0000000000
     18669      6223  TIP3      H2             17.7167612922       21.1901436235       -8.8602541586  W2        6223            0.0000000000
     18670      6224  TIP3      OH2             5.5307712922       29.1464036235       -6.4847341586  W2        6224            0.0000000000
     18671      6224  TIP3      H1              5.2389012922       29.9145736235       -6.9756041586  W2        6224            0.0000000000
     18672      6224  TIP3      H2              4.8562912922       28.4870236235       -6.6475941586  W2        6224            0.0000000000
     18673      6225  TIP3      OH2            18.6540612922       34.7249236235      -10.0820341586  W2        6225            0.0000000000
     18674      6225  TIP3      H1             18.7274112922       35.6639436235       -9.9115041586  W2        6225            0.0000000000
     18675      6225  TIP3      H2             19.5595712922       34.4197836235      -10.1383041586  W2        6225            0.0000000000
     18676      6226  TIP3      OH2             1.6237812922       31.5093236235        2.3302458414  W2        6226            0.0000000000
     18677      6226  TIP3      H1              1.1226212922       31.4812636235        1.5152158414  W2        6226            0.0000000000
     18678      6226  TIP3      H2              1.6291512922       30.6036436235        2.6399758414  W2        6226            0.0000000000
     18679      6227  TIP3      OH2             1.3740512922       34.2897036235       -0.7857341586  W2        6227            0.0000000000
     18680      6227  TIP3      H1              2.3201112922       34.1454036235       -0.8047841586  W2        6227            0.0000000000
     18681      6227  TIP3      H2              1.2616812922       35.0739836235       -0.2486141586  W2        6227            0.0000000000
     18682      6228  TIP3      OH2            19.5719012922       34.9556736235        4.8966358414  W2        6228            0.0000000000
     18683      6228  TIP3      H1             19.5225812922       34.0004836235        4.8593958414  W2        6228            0.0000000000
     18684      6228  TIP3      H2             18.7451312922       35.2232036235        5.2980158414  W2        6228            0.0000000000
     18685      6229  TIP3      OH2            10.5503012922       34.5295936235        3.7727758414  W2        6229            0.0000000000
     18686      6229  TIP3      H1             10.6377612922       35.3560536235        4.2476858414  W2        6229            0.0000000000
     18687      6229  TIP3      H2              9.6868112922       34.1999736235        4.0217058414  W2        6229            0.0000000000
     18688      6230  TIP3      OH2            16.7238812922       26.4489236235        5.3768558414  W2        6230            0.0000000000
     18689      6230  TIP3      H1             16.3165612922       26.9294836235        4.6561858414  W2        6230            0.0000000000
     18690      6230  TIP3      H2             16.7644512922       25.5435236235        5.0689358414  W2        6230            0.0000000000
     18691      6231  TIP3      OH2             3.8728312922       32.8328636235        3.3735258414  W2        6231            0.0000000000
     18692      6231  TIP3      H1              4.0889612922       32.4714236235        4.2331058414  W2        6231            0.0000000000
     18693      6231  TIP3      H2              3.0173012922       32.4582436235        3.1638758414  W2        6231            0.0000000000
     18694      6232  TIP3      OH2             6.4916312922       21.3029136235       -0.6310541586  W2        6232            0.0000000000
     18695      6232  TIP3      H1              5.6300012922       21.2157336235       -1.0387641586  W2        6232            0.0000000000
     18696      6232  TIP3      H2              6.4692012922       22.1589236235       -0.2032941586  W2        6232            0.0000000000
     18697      6233  TIP3      OH2            11.1544112922       21.0249536235        2.7436458414  W2        6233            0.0000000000
     18698      6233  TIP3      H1             11.5747212922       20.6096636235        3.4967058414  W2        6233            0.0000000000
     18699      6233  TIP3      H2             10.2213712922       20.8462836235        2.8608458414  W2        6233            0.0000000000
     18700      6234  TIP3      OH2            14.4809012922       24.7804736235        3.5970958414  W2        6234            0.0000000000
     18701      6234  TIP3      H1             13.9668512922       24.6546936235        4.3946958414  W2        6234            0.0000000000
     18702      6234  TIP3      H2             14.3253712922       25.6927836235        3.3527158414  W2        6234            0.0000000000
     18703      6235  TIP3      OH2            15.2433912922       29.6414736235      -10.6416041586  W2        6235            0.0000000000
     18704      6235  TIP3      H1             15.2854712922       29.4188636235      -11.5716041586  W2        6235            0.0000000000
     18705      6235  TIP3      H2             16.0926012922       30.0401836235      -10.4516141586  W2        6235            0.0000000000
     18706      6236  TIP3      OH2            10.8161412922       23.5172936235       -9.9712741586  W2        6236            0.0000000000
     18707      6236  TIP3      H1             10.5626212922       23.5364536235       -9.0484641586  W2        6236            0.0000000000
     18708      6236  TIP3      H2             10.5593512922       22.6458336235      -10.2726541586  W2        6236            0.0000000000
     18709      6237  TIP3      OH2             6.5826412922       26.2683636235        0.4639658414  W2        6237            0.0000000000
     18710      6237  TIP3      H1              5.9408512922       26.2280936235        1.1729758414  W2        6237            0.0000000000
     18711      6237  TIP3      H2              6.6198412922       27.1948336235        0.2262658414  W2        6237            0.0000000000
     18712      6238  TIP3      OH2             6.5795512922       26.4893736235       -4.6240341586  W2        6238            0.0000000000
     18713      6238  TIP3      H1              5.6868412922       26.1489836235       -4.6826541586  W2        6238            0.0000000000
     18714      6238  TIP3      H2              7.0302112922       26.1124636235       -5.3797141586  W2        6238            0.0000000000
     18715      6239  TIP3      OH2            12.1151012922       26.9054036235       -5.8069541586  W2        6239            0.0000000000
     18716      6239  TIP3      H1             11.7061312922       27.7202636235       -6.0984741586  W2        6239            0.0000000000
     18717      6239  TIP3      H2             12.8357212922       26.7654136235       -6.4212441586  W2        6239            0.0000000000
     18718      6240  TIP3      OH2            11.2172612922       27.0810436235        5.6811158414  W2        6240            0.0000000000
     18719      6240  TIP3      H1             10.6546412922       26.3762036235        6.0018958414  W2        6240            0.0000000000
     18720      6240  TIP3      H2             12.0436012922       26.9602336235        6.1488758414  W2        6240            0.0000000000
     18721      6241  TIP3      OH2            13.1198712922       26.3514436235       -2.9929841586  W2        6241            0.0000000000
     18722      6241  TIP3      H1             12.9243212922       26.9571236235       -3.7079241586  W2        6241            0.0000000000
     18723      6241  TIP3      H2             13.3011312922       25.5179636235       -3.4273541586  W2        6241            0.0000000000
     18724      6242  TIP3      OH2             4.3326912922       26.5887136235        2.3311658414  W2        6242            0.0000000000
     18725      6242  TIP3      H1              4.2946312922       26.9888736235        3.1998758414  W2        6242            0.0000000000
     18726      6242  TIP3      H2              3.8418012922       25.7719536235        2.4214558414  W2        6242            0.0000000000
     18727      6243  TIP3      OH2             7.6984312922       23.9629436235      -10.8702341586  W2        6243            0.0000000000
     18728      6243  TIP3      H1              7.2675012922       23.5179536235      -10.1404941586  W2        6243            0.0000000000
     18729      6243  TIP3      H2              6.9803012922       24.3345736235      -11.3824841586  W2        6243            0.0000000000
     18730      6244  TIP3      OH2             0.9407712922       23.7048936235       -3.8183641586  W2        6244            0.0000000000
     18731      6244  TIP3      H1              1.5715412922       23.6761036235       -3.0989741586  W2        6244            0.0000000000
     18732      6244  TIP3      H2              1.3902012922       23.2797636235       -4.5487741586  W2        6244            0.0000000000
     18733      6245  TIP3      OH2             2.2149812922       24.4510936235       -8.3943241586  W2        6245            0.0000000000
     18734      6245  TIP3      H1              2.6891512922       25.0420836235       -8.9792341586  W2        6245            0.0000000000
     18735      6245  TIP3      H2              1.4976212922       24.9813836235       -8.0473141586  W2        6245            0.0000000000
     18736      6246  TIP3      OH2            12.3837912922       27.9895736235        1.6782558414  W2        6246            0.0000000000
     18737      6246  TIP3      H1             12.7072712922       27.3585436235        1.0353058414  W2        6246            0.0000000000
     18738      6246  TIP3      H2             11.9437212922       27.4547936235        2.3389958414  W2        6246            0.0000000000
     18739      6247  TIP3      OH2             9.1610812922       23.9171236235       -3.5376241586  W2        6247            0.0000000000
     18740      6247  TIP3      H1              8.2501912922       23.9738036235       -3.2490241586  W2        6247            0.0000000000
     18741      6247  TIP3      H2              9.6663712922       23.8566736235       -2.7269041586  W2        6247            0.0000000000
     18742      6248  TIP3      OH2             3.9894212922       25.5457536235       -4.7108641586  W2        6248            0.0000000000
     18743      6248  TIP3      H1              3.1002212922       25.6453036235       -5.0509041586  W2        6248            0.0000000000
     18744      6248  TIP3      H2              4.2859112922       24.7040536235       -5.0570741586  W2        6248            0.0000000000
     18745      6249  TIP3      OH2             7.6426012922       25.5460136235       -7.0544041586  W2        6249            0.0000000000
     18746      6249  TIP3      H1              8.5741512922       25.6750136235       -6.8760941586  W2        6249            0.0000000000
     18747      6249  TIP3      H2              7.4276312922       26.2154436235       -7.7039341586  W2        6249            0.0000000000
     18748      6250  TIP3      OH2            13.5662712922       23.1517536235       -0.2734441586  W2        6250            0.0000000000
     18749      6250  TIP3      H1             12.8894312922       23.2830636235        0.3905258414  W2        6250            0.0000000000
     18750      6250  TIP3      H2             13.0807612922       22.9967036235       -1.0836741586  W2        6250            0.0000000000
     18751      6251  TIP3      OH2             6.3166212922       26.7402336235       -9.4877941586  W2        6251            0.0000000000
     18752      6251  TIP3      H1              5.7741312922       26.3606136235      -10.1790341586  W2        6251            0.0000000000
     18753      6251  TIP3      H2              7.1501112922       26.9347036235       -9.9163841586  W2        6251            0.0000000000
     18754      6252  TIP3      OH2             4.4517612922       31.2974236235        5.6113658414  W2        6252            0.0000000000
     18755      6252  TIP3      H1              5.1840012922       31.5520136235        6.1728158414  W2        6252            0.0000000000
     18756      6252  TIP3      H2              3.6716312922       31.5019636235        6.1269058414  W2        6252            0.0000000000
     18757      6253  TIP3      OH2            10.4810512922       26.7044236235       -1.6506641586  W2        6253            0.0000000000
     18758      6253  TIP3      H1             11.0453912922       26.1580836235       -2.1977041586  W2        6253            0.0000000000
     18759      6253  TIP3      H2             10.3333912922       26.1826136235       -0.8619041586  W2        6253            0.0000000000
     18760      6254  TIP3      OH2             5.4830212922       22.8410336235       -5.2321841586  W2        6254            0.0000000000
     18761      6254  TIP3      H1              5.1659712922       21.9385636235       -5.2676441586  W2        6254            0.0000000000
     18762      6254  TIP3      H2              6.2644312922       22.8427736235       -5.7850241586  W2        6254            0.0000000000
     18763      6255  TIP3      OH2             9.1076412922       25.0930336235        0.7633758414  W2        6255            0.0000000000
     18764      6255  TIP3      H1              8.2721712922       25.5469836235        0.8736158414  W2        6255            0.0000000000
     18765      6255  TIP3      H2              9.6317012922       25.3688836235        1.5153658414  W2        6255            0.0000000000
     18766      6256  TIP3      OH2             9.6519012922       31.3058036235       -7.5519841586  W2        6256            0.0000000000
     18767      6256  TIP3      H1              8.9070012922       30.7983336235       -7.8741941586  W2        6256            0.0000000000
     18768      6256  TIP3      H2              9.5176212922       31.3546036235       -6.6055041586  W2        6256            0.0000000000
     18769      6257  TIP3      OH2            16.8017912922       30.4386236235        1.2347758414  W2        6257            0.0000000000
     18770      6257  TIP3      H1             17.4436712922       30.8952536235        0.6909958414  W2        6257            0.0000000000
     18771      6257  TIP3      H2             15.9714812922       30.5518636235        0.7721858414  W2        6257            0.0000000000
     18772      6258  TIP3      OH2            13.5495812922       24.1197936235       -9.3527241586  W2        6258            0.0000000000
     18773      6258  TIP3      H1             12.6110012922       24.2313536235       -9.5038441586  W2        6258            0.0000000000
     18774      6258  TIP3      H2             13.8467912922       24.9764836235       -9.0461541586  W2        6258            0.0000000000
     18775      6259  TIP3      OH2            11.1711112922       31.4901336235        3.6849258414  W2        6259            0.0000000000
     18776      6259  TIP3      H1             10.8257212922       31.1083736235        4.4918858414  W2        6259            0.0000000000
     18777      6259  TIP3      H2             10.9711212922       32.4234936235        3.7562158414  W2        6259            0.0000000000
     18778      6260  TIP3      OH2            14.2679312922       25.9870636235       -7.6919841586  W2        6260            0.0000000000
     18779      6260  TIP3      H1             15.1598312922       25.8495636235       -7.3728641586  W2        6260            0.0000000000
     18780      6260  TIP3      H2             14.3242912922       26.7776736235       -8.2286341586  W2        6260            0.0000000000
     18781      6261  TIP3      OH2             4.7767312922       30.6008036235       -1.7821941586  W2        6261            0.0000000000
     18782      6261  TIP3      H1              5.5214512922       30.5983736235       -2.3835441586  W2        6261            0.0000000000
     18783      6261  TIP3      H2              4.8543912922       29.7771836235       -1.3006841586  W2        6261            0.0000000000
     18784      6262  TIP3      OH2            11.7773112922       32.7642336235       -8.5265241586  W2        6262            0.0000000000
     18785      6262  TIP3      H1             11.4821512922       33.5910236235       -8.1450441586  W2        6262            0.0000000000
     18786      6262  TIP3      H2             11.0743112922       32.1449236235       -8.3303841586  W2        6262            0.0000000000
     18787      6263  TIP3      OH2             1.7847012922       29.0614936235        3.5326558414  W2        6263            0.0000000000
     18788      6263  TIP3      H1              2.0075612922       28.6434536235        4.3644058414  W2        6263            0.0000000000
     18789      6263  TIP3      H2              1.1827112922       28.4489936235        3.1099358414  W2        6263            0.0000000000
     18790      6264  TIP3      OH2             8.8011912922       28.5784836235        5.7456258414  W2        6264            0.0000000000
     18791      6264  TIP3      H1              8.5052712922       28.4127836235        4.8505358414  W2        6264            0.0000000000
     18792      6264  TIP3      H2              9.7327112922       28.3585136235        5.7350158414  W2        6264            0.0000000000
     18793      6265  TIP3      OH2            13.4214712922       33.9516836235        3.6354258414  W2        6265            0.0000000000
     18794      6265  TIP3      H1             12.5209012922       34.1349436235        3.3678158414  W2        6265            0.0000000000
     18795      6265  TIP3      H2             13.4555812922       34.2106136235        4.5563058414  W2        6265            0.0000000000
     18796      6266  TIP3      OH2            19.1528012922       26.1964736235       -7.9973141586  W2        6266            0.0000000000
     18797      6266  TIP3      H1             18.5984312922       25.8002736235       -8.6695641586  W2        6266            0.0000000000
     18798      6266  TIP3      H2             19.2531612922       27.1069936235       -8.2749841586  W2        6266            0.0000000000
     18799      6267  TIP3      OH2            19.1160012922       31.9966436235        4.8398358414  W2        6267            0.0000000000
     18800      6267  TIP3      H1             18.2648512922       32.2350236235        4.4724758414  W2        6267            0.0000000000
     18801      6267  TIP3      H2             19.7063412922       31.9799636235        4.0865458414  W2        6267            0.0000000000
     18802      6268  TIP3      OH2            17.4479712922       34.9825136235       -7.5321041586  W2        6268            0.0000000000
     18803      6268  TIP3      H1             17.0750812922       34.1568936235       -7.2230441586  W2        6268            0.0000000000
     18804      6268  TIP3      H2             17.7253212922       34.7994536235       -8.4297641586  W2        6268            0.0000000000
     18805      6269  TIP3      OH2            14.6083612922       29.7904636235       -0.5109141586  W2        6269            0.0000000000
     18806      6269  TIP3      H1             13.6800512922       29.5586536235       -0.5379841586  W2        6269            0.0000000000
     18807      6269  TIP3      H2             15.0594712922       29.0134436235       -0.8410341586  W2        6269            0.0000000000
     18808      6270  TIP3      OH2             7.1516712922       34.1186236235       -4.3780441586  W2        6270            0.0000000000
     18809      6270  TIP3      H1              7.6788912922       34.8920636235       -4.5781641586  W2        6270            0.0000000000
     18810      6270  TIP3      H2              6.2715212922       34.3435436235       -4.6796441586  W2        6270            0.0000000000
     18811      6271  TIP3      OH2             2.9064412922       28.9810336235       -9.7908041586  W2        6271            0.0000000000
     18812      6271  TIP3      H1              3.5224312922       29.6077536235       -9.4113241586  W2        6271            0.0000000000
     18813      6271  TIP3      H2              2.0447012922       29.2970136235       -9.5191541586  W2        6271            0.0000000000
     18814      6272  TIP3      OH2             8.5789012922       31.7816136235       -4.8016141586  W2        6272            0.0000000000
     18815      6272  TIP3      H1              8.3379012922       32.7070536235       -4.7600841586  W2        6272            0.0000000000
     18816      6272  TIP3      H2              7.8382612922       31.3227436235       -4.4052241586  W2        6272            0.0000000000
     18817      6273  TIP3      OH2             9.0935612922       35.9309736235        1.5134958414  W2        6273            0.0000000000
     18818      6273  TIP3      H1              9.4560312922       36.7855336235        1.2799358414  W2        6273            0.0000000000
     18819      6273  TIP3      H2              9.6250812922       35.6391336235        2.2541258414  W2        6273            0.0000000000
     18820      6274  TIP3      OH2             7.2619812922       36.8033736235       -5.2563941586  W2        6274            0.0000000000
     18821      6274  TIP3      H1              6.3120312922       36.9091136235       -5.2050641586  W2        6274            0.0000000000
     18822      6274  TIP3      H2              7.6137912922       37.6241136235       -4.9116441586  W2        6274            0.0000000000
     18823      6275  TIP3      OH2            12.6376412922       32.0300436235        1.2140558414  W2        6275            0.0000000000
     18824      6275  TIP3      H1             12.2117712922       31.8022136235        2.0404558414  W2        6275            0.0000000000
     18825      6275  TIP3      H2             13.2182212922       31.2912236235        1.0315858414  W2        6275            0.0000000000
     18826      6276  TIP3      OH2            14.8405312922       32.9590936235       -9.7120441586  W2        6276            0.0000000000
     18827      6276  TIP3      H1             15.1938412922       32.5790736235       -8.9076941586  W2        6276            0.0000000000
     18828      6276  TIP3      H2             13.8918812922       32.8655736235       -9.6251141586  W2        6276            0.0000000000
     18829      6277  TIP3      OH2            15.2960612922       36.5819936235        3.6835358414  W2        6277            0.0000000000
     18830      6277  TIP3      H1             14.6943812922       36.0262836235        3.1881658414  W2        6277            0.0000000000
     18831      6277  TIP3      H2             15.5774312922       37.2489736235        3.0572758414  W2        6277            0.0000000000
     18832      6278  TIP3      OH2             3.4186512922       23.8147636235        3.0907958414  W2        6278            0.0000000000
     18833      6278  TIP3      H1              2.5258812922       24.1533036235        3.0231958414  W2        6278            0.0000000000
     18834      6278  TIP3      H2              3.3199312922       22.9593736235        3.5088758414  W2        6278            0.0000000000
     18835      6279  TIP3      OH2            15.7064612922       31.6312936235       -7.4852541586  W2        6279            0.0000000000
     18836      6279  TIP3      H1             15.4292212922       30.9032236235       -6.9291441586  W2        6279            0.0000000000
     18837      6279  TIP3      H2             16.6337612922       31.7504936235       -7.2799941586  W2        6279            0.0000000000
     18838      6280  TIP3      OH2             3.0698512922       35.6192036235        1.5257358414  W2        6280            0.0000000000
     18839      6280  TIP3      H1              3.2868812922       34.6874436235        1.4947058414  W2        6280            0.0000000000
     18840      6280  TIP3      H2              3.3162012922       35.8937036235        2.4090158414  W2        6280            0.0000000000
     18841      6281  TIP3      OH2             8.9313112922       34.0707036235      -11.2650441586  W2        6281            0.0000000000
     18842      6281  TIP3      H1              9.1702912922       33.3225136235      -11.8121541586  W2        6281            0.0000000000
     18843      6281  TIP3      H2              8.6624412922       33.6828736235      -10.4322641586  W2        6281            0.0000000000
     18844      6282  TIP3      OH2             7.8683712922       33.6410836235       -8.8087841586  W2        6282            0.0000000000
     18845      6282  TIP3      H1              8.0151712922       33.1210636235       -8.0186941586  W2        6282            0.0000000000
     18846      6282  TIP3      H2              7.8655412922       34.5478436235       -8.5021941586  W2        6282            0.0000000000
     18847      6283  TIP3      OH2             4.3214812922       30.8934136235       -8.2982441586  W2        6283            0.0000000000
     18848      6283  TIP3      H1              3.6354112922       31.2456636235       -7.7312741586  W2        6283            0.0000000000
     18849      6283  TIP3      H2              4.8442712922       31.6563736235       -8.5448141586  W2        6283            0.0000000000
     18850      6284  TIP3      OH2            12.1529912922       23.5557936235        1.9806558414  W2        6284            0.0000000000
     18851      6284  TIP3      H1             12.8517812922       23.6296636235        2.6306258414  W2        6284            0.0000000000
     18852      6284  TIP3      H2             11.7721312922       22.6912936235        2.1349458414  W2        6284            0.0000000000
     18853      6285  TIP3      OH2            12.9374812922       23.2079636235       -6.9221141586  W2        6285            0.0000000000
     18854      6285  TIP3      H1             13.1573112922       23.6795036235       -7.7255741586  W2        6285            0.0000000000
     18855      6285  TIP3      H2             13.4958812922       23.6022236235       -6.2520541586  W2        6285            0.0000000000
     18856      6286  TIP3      OH2            10.6060912922       35.3384436235       -8.0593641586  W2        6286            0.0000000000
     18857      6286  TIP3      H1              9.7897012922       35.8354136235       -8.0069341586  W2        6286            0.0000000000
     18858      6286  TIP3      H2             11.1357212922       35.8137936235       -8.6994841586  W2        6286            0.0000000000
     18859      6287  TIP3      OH2            10.1374712922       24.9358436235       -6.0872741586  W2        6287            0.0000000000
     18860      6287  TIP3      H1             10.9497312922       25.4401636235       -6.0411041586  W2        6287            0.0000000000
     18861      6287  TIP3      H2              9.8927712922       24.7908136235       -5.1733141586  W2        6287            0.0000000000
     18862      6288  TIP3      OH2            10.6731112922       25.9221136235        3.0973858414  W2        6288            0.0000000000
     18863      6288  TIP3      H1             10.7921412922       26.4956536235        3.8544258414  W2        6288            0.0000000000
     18864      6288  TIP3      H2             11.3285712922       25.2340536235        3.2121658414  W2        6288            0.0000000000
     18865      6289  TIP3      OH2            11.0211412922       22.0171436235       -5.1491641586  W2        6289            0.0000000000
     18866      6289  TIP3      H1             10.6744912922       22.6342036235       -4.5047341586  W2        6289            0.0000000000
     18867      6289  TIP3      H2             11.6798312922       22.5177136235       -5.6306141586  W2        6289            0.0000000000
     18868      6290  TIP3      OH2             7.9444012922       36.3821636235       -8.0776741586  W2        6290            0.0000000000
     18869      6290  TIP3      H1              8.1052712922       37.1819136235       -8.5784141586  W2        6290            0.0000000000
     18870      6290  TIP3      H2              7.7471812922       36.6887636235       -7.1926141586  W2        6290            0.0000000000
     18871      6291  TIP3      OH2             6.6788412922       23.0800836235       -8.4619141586  W2        6291            0.0000000000
     18872      6291  TIP3      H1              6.5953212922       23.9683936235       -8.1152741586  W2        6291            0.0000000000
     18873      6291  TIP3      H2              7.5688712922       22.8147536235       -8.2302341586  W2        6291            0.0000000000
     18874      6292  TIP3      OH2            16.8776912922       23.8291436235        3.9323558414  W2        6292            0.0000000000
     18875      6292  TIP3      H1             15.9612712922       24.0913136235        3.8447258414  W2        6292            0.0000000000
     18876      6292  TIP3      H2             17.2131912922       23.8260436235        3.0358858414  W2        6292            0.0000000000
     18877      6293  TIP3      OH2            15.4797912922       27.5792436235       -1.9719141586  W2        6293            0.0000000000
     18878      6293  TIP3      H1             14.6822312922       27.1642636235       -2.3004141586  W2        6293            0.0000000000
     18879      6293  TIP3      H2             15.9249012922       26.8886136235       -1.4808641586  W2        6293            0.0000000000
     18880      6294  TIP3      OH2             4.9373712922       33.5073036235       -9.4014641586  W2        6294            0.0000000000
     18881      6294  TIP3      H1              5.5295212922       34.2067836235       -9.1252241586  W2        6294            0.0000000000
     18882      6294  TIP3      H2              5.3966712922       33.0742536235      -10.1210041586  W2        6294            0.0000000000
     18883      6295  TIP3      OH2             3.2532912922       26.1716036235      -10.2855241586  W2        6295            0.0000000000
     18884      6295  TIP3      H1              3.2085512922       27.1109136235      -10.1068241586  W2        6295            0.0000000000
     18885      6295  TIP3      H2              2.3656112922       25.9360936235      -10.5553141586  W2        6295            0.0000000000
     18886      6296  TIP3      OH2             4.0614912922       20.9532636235       -1.6124241586  W2        6296            0.0000000000
     18887      6296  TIP3      H1              3.8324712922       21.0125136235       -2.5399241586  W2        6296            0.0000000000
     18888      6296  TIP3      H2              3.6188312922       20.1618136235       -1.3060141586  W2        6296            0.0000000000
     18889      6297  TIP3      OH2             2.9918212922       34.8939736235       -5.4518441586  W2        6297            0.0000000000
     18890      6297  TIP3      H1              2.1596812922       35.3662436235       -5.4247041586  W2        6297            0.0000000000
     18891      6297  TIP3      H2              3.5376512922       35.4037336235       -6.0505341586  W2        6297            0.0000000000
     18892      6298  TIP3      OH2             6.8775312922       36.4257836235        7.4983758414  W2        6298            0.0000000000
     18893      6298  TIP3      H1              7.6452512922       35.9668636235        7.8392958414  W2        6298            0.0000000000
     18894      6298  TIP3      H2              6.8561512922       36.1997636235        6.5684958414  W2        6298            0.0000000000
     18895      6299  TIP3      OH2            10.9694912922       35.9338436235      -11.1264441586  W2        6299            0.0000000000
     18896      6299  TIP3      H1             10.3255912922       35.3027036235      -10.8050741586  W2        6299            0.0000000000
     18897      6299  TIP3      H2             11.7313212922       35.4026436235      -11.3580941586  W2        6299            0.0000000000
     18898      6300  TIP3      OH2            13.4544012922       34.8058936235        6.2275258414  W2        6300            0.0000000000
     18899      6300  TIP3      H1             13.1033512922       33.9491936235        6.4705658414  W2        6300            0.0000000000
     18900      6300  TIP3      H2             14.1807212922       34.9485636235        6.8344258414  W2        6300            0.0000000000
     18901      6301  TIP3      OH2            15.5737812922       35.7508336235      -10.8926441586  W2        6301            0.0000000000
     18902      6301  TIP3      H1             15.8568212922       34.9563536235      -10.4399541586  W2        6301            0.0000000000
     18903      6301  TIP3      H2             16.3135712922       35.9839336235      -11.4535341586  W2        6301            0.0000000000
     18904      6302  TIP3      OH2             2.1871412922       31.3167536235        6.8323858414  W2        6302            0.0000000000
     18905      6302  TIP3      H1              2.3311912922       30.4148236235        6.5460558414  W2        6302            0.0000000000
     18906      6302  TIP3      H2              1.4148812922       31.6029636235        6.3446158414  W2        6302            0.0000000000
     18907      6303  TIP3      OH2             6.5285112922       31.6603236235      -11.0351541586  W2        6303            0.0000000000
     18908      6303  TIP3      H1              6.5929212922       30.8662836235      -10.5045141586  W2        6303            0.0000000000
     18909      6303  TIP3      H2              7.1814312922       31.5416036235      -11.7249541586  W2        6303            0.0000000000
     18910      6304  TIP3      OH2             8.8427512922       31.2865636235        6.2650258414  W2        6304            0.0000000000
     18911      6304  TIP3      H1              8.5141312922       31.5573736235        5.4077658414  W2        6304            0.0000000000
     18912      6304  TIP3      H2              8.9945712922       30.3455436235        6.1775258414  W2        6304            0.0000000000
     18913      6305  TIP3      OH2            11.8808512922       32.7074936235      -11.2993541586  W2        6305            0.0000000000
     18914      6305  TIP3      H1             11.6122612922       32.8877036235      -10.3984641586  W2        6305            0.0000000000
     18915      6305  TIP3      H2             11.6744112922       31.7821136235      -11.4307741586  W2        6305            0.0000000000
     18916      6306  TIP3      OH2            14.5772712922       31.2022936235        3.6482558414  W2        6306            0.0000000000
     18917      6306  TIP3      H1             15.3227512922       31.7906636235        3.5286558414  W2        6306            0.0000000000
     18918      6306  TIP3      H2             13.8199512922       31.7842636235        3.7115658414  W2        6306            0.0000000000
     18919      6307  TIP3      OH2             3.0197912922       28.5170836235        6.2523158414  W2        6307            0.0000000000
     18920      6307  TIP3      H1              3.4279112922       27.6597436235        6.1313758414  W2        6307            0.0000000000
     18921      6307  TIP3      H2              2.7595512922       28.5312136235        7.1733458414  W2        6307            0.0000000000
     18922      6308  TIP3      OH2             7.6778912922       29.6329436235       -8.7293541586  W2        6308            0.0000000000
     18923      6308  TIP3      H1              7.2180912922       29.1487736235       -8.0435041586  W2        6308            0.0000000000
     18924      6308  TIP3      H2              7.9327612922       28.9644836235       -9.3653041586  W2        6308            0.0000000000
     18925      6309  TIP3      OH2             6.9668212922       27.5256536235        3.6266058414  W2        6309            0.0000000000
     18926      6309  TIP3      H1              6.3484312922       28.2003136235        3.9070758414  W2        6309            0.0000000000
     18927      6309  TIP3      H2              7.3109412922       27.8470436235        2.7932258414  W2        6309            0.0000000000
     18928      6310  TIP3      OH2             8.7489312922       27.8761236235      -10.4670341586  W2        6310            0.0000000000
     18929      6310  TIP3      H1              8.5684312922       27.7212436235      -11.3942041586  W2        6310            0.0000000000
     18930      6310  TIP3      H2              9.6989812922       27.9839936235      -10.4222441586  W2        6310            0.0000000000
     18931      6311  TIP3      OH2            11.9866412922       29.9971836235        6.9040858414  W2        6311            0.0000000000
     18932      6311  TIP3      H1             12.9397612922       30.0810936235        6.8766858414  W2        6311            0.0000000000
     18933      6311  TIP3      H2             11.8261012922       29.2853636235        7.5235758414  W2        6311            0.0000000000
     18934      6312  TIP3      OH2            18.1387612922       30.2305436235      -11.0212241586  W2        6312            0.0000000000
     18935      6312  TIP3      H1             17.8652412922       29.8060936235      -11.8343941586  W2        6312            0.0000000000
     18936      6312  TIP3      H2             18.1781712922       31.1619936235      -11.2381841586  W2        6312            0.0000000000
     18937      6313  TIP3      OH2             7.3061912922       24.8807336235        4.7089158414  W2        6313            0.0000000000
     18938      6313  TIP3      H1              7.4562812922       24.1518636235        4.1068858414  W2        6313            0.0000000000
     18939      6313  TIP3      H2              7.3084312922       25.6579036235        4.1501358414  W2        6313            0.0000000000
     18940      6314  TIP3      OH2             7.7187612922       23.2503136235        2.2016558414  W2        6314            0.0000000000
     18941      6314  TIP3      H1              8.2545112922       23.7019836235        1.5495858414  W2        6314            0.0000000000
     18942      6314  TIP3      H2              6.8667212922       23.1422936235        1.7790658414  W2        6314            0.0000000000
     18943      6315  TIP3      OH2             9.3006012922       28.6899336235        2.4411758414  W2        6315            0.0000000000
     18944      6315  TIP3      H1             10.0510812922       28.5336836235        1.8679558414  W2        6315            0.0000000000
     18945      6315  TIP3      H2              8.9614312922       29.5415936235        2.1657258414  W2        6315            0.0000000000
     18946      6316  TIP3      OH2            13.7162212922       26.5051136235        7.4697058414  W2        6316            0.0000000000
     18947      6316  TIP3      H1             13.9083512922       25.5740536235        7.3581558414  W2        6316            0.0000000000
     18948      6316  TIP3      H2             14.5738512922       26.9300636235        7.4592458414  W2        6316            0.0000000000
     18949      6317  TIP3      OH2            15.0329412922       29.2936336235        5.5469758414  W2        6317            0.0000000000
     18950      6317  TIP3      H1             14.7514412922       30.0030936235        4.9693558414  W2        6317            0.0000000000
     18951      6317  TIP3      H2             15.9753712922       29.2209336235        5.3960958414  W2        6317            0.0000000000
     18952      6318  TIP3      OH2             5.7848212922       26.0790836235        6.6204758414  W2        6318            0.0000000000
     18953      6318  TIP3      H1              5.0177212922       25.5465636235        6.4102358414  W2        6318            0.0000000000
     18954      6318  TIP3      H2              6.4637212922       25.7691236235        6.0211058414  W2        6318            0.0000000000
     18955      6319  TIP3      OH2             8.5243112922       20.7068836235        2.6330158414  W2        6319            0.0000000000
     18956      6319  TIP3      H1              8.4262712922       21.6532036235        2.5276358414  W2        6319            0.0000000000
     18957      6319  TIP3      H2              7.7819312922       20.3342636235        2.1573658414  W2        6319            0.0000000000
     18958      6320  TIP3      OH2             9.7883612922       25.0284236235        6.1968558414  W2        6320            0.0000000000
     18959      6320  TIP3      H1              9.5529012922       24.8090936235        7.0983458414  W2        6320            0.0000000000
     18960      6320  TIP3      H2              9.0050512922       24.8215436235        5.6871058414  W2        6320            0.0000000000
     18961      6321  TIP3      OH2            12.5040212922       24.1557736235        5.2722058414  W2        6321            0.0000000000
     18962      6321  TIP3      H1             11.5565612922       24.1877436235        5.4045358414  W2        6321            0.0000000000
     18963      6321  TIP3      H2             12.8166912922       23.5304836235        5.9260258414  W2        6321            0.0000000000
     18964      6322  TIP3      OH2            14.1381712922       22.7898836235        7.2773958414  W2        6322            0.0000000000
     18965      6322  TIP3      H1             14.0413512922       21.8376136235        7.2715858414  W2        6322            0.0000000000
     18966      6322  TIP3      H2             13.8164812922       23.0585636235        8.1379458414  W2        6322            0.0000000000
     18967      6323  TIP3      OH2             3.9651012922       23.9994636235        6.3249458414  W2        6323            0.0000000000
     18968      6323  TIP3      H1              4.1768412922       23.2930736235        5.7146958414  W2        6323            0.0000000000
     18969      6323  TIP3      H2              3.8538512922       23.5620636235        7.1690658414  W2        6323            0.0000000000
     18970      6324  TIP3      OH2             8.7461212922       20.0006236235        5.3042958414  W2        6324            0.0000000000
     18971      6324  TIP3      H1              9.4579612922       19.3608436235        5.2902058414  W2        6324            0.0000000000
     18972      6324  TIP3      H2              8.6451612922       20.2674536235        4.3906058414  W2        6324            0.0000000000
     18973      6325  TIP3      OH2             9.0998712922       21.6834636235        7.3579258414  W2        6325            0.0000000000
     18974      6325  TIP3      H1              8.9680912922       21.2078436235        6.5377758414  W2        6325            0.0000000000
     18975      6325  TIP3      H2              8.5006112922       22.4278236235        7.3026358414  W2        6325            0.0000000000
     18976      6326  TIP3      OH2             2.2145912922       33.2028736235       -9.9828641586  W2        6326            0.0000000000
     18977      6326  TIP3      H1              3.1285112922       33.2817636235       -9.7094741586  W2        6326            0.0000000000
     18978      6326  TIP3      H2              2.2219012922       32.5158336235      -10.6493041586  W2        6326            0.0000000000
     18979      6327  TIP3      OH2             1.7335712922       36.6764236235       -3.1008541586  W2        6327            0.0000000000
     18980      6327  TIP3      H1              1.3992512922       35.7961536235       -2.9288341586  W2        6327            0.0000000000
     18981      6327  TIP3      H2              1.9558112922       37.0219236235       -2.2362941586  W2        6327            0.0000000000
     18982      6328  TIP3      OH2            17.2960712922       32.8429836235        7.4395658414  W2        6328            0.0000000000
     18983      6328  TIP3      H1             16.4301812922       32.7379536235        7.8337958414  W2        6328            0.0000000000
     18984      6328  TIP3      H2             17.6726612922       33.6013136235        7.8860358414  W2        6328            0.0000000000
     18985      6329  TIP3      OH2            18.5970412922       31.0993536235       -7.0461841586  W2        6329            0.0000000000
     18986      6329  TIP3      H1             19.4471812922       31.5204436235       -6.9190241586  W2        6329            0.0000000000
     18987      6329  TIP3      H2             18.6025512922       30.3593636235       -6.4390441586  W2        6329            0.0000000000
     18988      6330  TIP3      OH2            18.9916012922       29.1530936235       -5.2226141586  W2        6330            0.0000000000
     18989      6330  TIP3      H1             18.2650612922       28.6733536235       -4.8248541586  W2        6330            0.0000000000
     18990      6330  TIP3      H2             19.5729312922       29.3585636235       -4.4904541586  W2        6330            0.0000000000
     18991      6331  TIP3      OH2            18.7507212922       31.9378436235       -0.2748541586  W2        6331            0.0000000000
     18992      6331  TIP3      H1             19.5841412922       31.5598436235       -0.5554941586  W2        6331            0.0000000000
     18993      6331  TIP3      H2             18.8627512922       32.8809636235       -0.3939441586  W2        6331            0.0000000000
     18994      6332  TIP3      OH2            17.2369512922       34.8155936235        2.0319858414  W2        6332            0.0000000000
     18995      6332  TIP3      H1             16.5894812922       35.1407436235        2.6575058414  W2        6332            0.0000000000
     18996      6332  TIP3      H2             16.7193512922       34.3753636235        1.3578158414  W2        6332            0.0000000000
     18997      6333  TIP3      OH2            19.2599112922       29.0539436235       -8.8314841586  W2        6333            0.0000000000
     18998      6333  TIP3      H1             18.7380212922       29.4103536235       -9.5503941586  W2        6333            0.0000000000
     18999      6333  TIP3      H2             19.2268312922       29.7287236235       -8.1533941586  W2        6333            0.0000000000
     19000      6334  TIP3      OH2            17.6088112922       26.2935036235      -10.2807741586  W2        6334            0.0000000000
     19001      6334  TIP3      H1             17.7052512922       26.9602036235      -10.9608041586  W2        6334            0.0000000000
     19002      6334  TIP3      H2             17.4687712922       25.4781336235      -10.7622241586  W2        6334            0.0000000000
     19003      6335  TIP3      OH2            16.7782812922       27.6737436235       -4.6597441586  W2        6335            0.0000000000
     19004      6335  TIP3      H1             16.6281612922       26.7286036235       -4.6799641586  W2        6335            0.0000000000
     19005      6335  TIP3      H2             16.4247312922       27.9548836235       -3.8158341586  W2        6335            0.0000000000
     19006      6336  TIP3      OH2             1.8135212922       29.7519636235       -0.6493641586  W2        6336            0.0000000000
     19007      6336  TIP3      H1              1.9978112922       29.6701336235       -1.5850741586  W2        6336            0.0000000000
     19008      6336  TIP3      H2              2.6628112922       29.6276636235       -0.2257241586  W2        6336            0.0000000000
     19009      6337  TIP3      OH2            17.6345712922       29.6440736235        4.9790858414  W2        6337            0.0000000000
     19010      6337  TIP3      H1             18.2173012922       28.9093036235        5.1708058414  W2        6337            0.0000000000
     19011      6337  TIP3      H2             18.1985012922       30.4161036235        5.0256658414  W2        6337            0.0000000000
     19012      6338  TIP3      OH2            19.1312812922       27.5466536235        5.6636258414  W2        6338            0.0000000000
     19013      6338  TIP3      H1             18.2679512922       27.1678636235        5.4980958414  W2        6338            0.0000000000
     19014      6338  TIP3      H2             19.7356512922       26.8081336235        5.5892058414  W2        6338            0.0000000000
     19015      6339  TIP3      OH2            16.8561912922       23.7014836235      -11.1632241586  W2        6339            0.0000000000
     19016      6339  TIP3      H1             17.4667712922       23.3301636235      -10.5264041586  W2        6339            0.0000000000
     19017      6339  TIP3      H2             16.0193412922       23.2801736235      -10.9672241586  W2        6339            0.0000000000
     19018      6340  TIP3      OH2            16.4887612922       25.2563236235       -6.1972341586  W2        6340            0.0000000000
     19019      6340  TIP3      H1             16.7684712922       24.3493636235       -6.0730641586  W2        6340            0.0000000000
     19020      6340  TIP3      H2             17.2479312922       25.6904736235       -6.5863141586  W2        6340            0.0000000000
     19021      6341  TIP3      OH2            17.1005912922       25.8380636235       -0.7613441586  W2        6341            0.0000000000
     19022      6341  TIP3      H1             18.0333912922       26.0500536235       -0.7957441586  W2        6341            0.0000000000
     19023      6341  TIP3      H2             16.8653412922       25.9392736235        0.1609558414  W2        6341            0.0000000000
     19024      6342  TIP3      OH2            17.1297812922       26.5745936235        2.0145958414  W2        6342            0.0000000000
     19025      6342  TIP3      H1             16.2869112922       26.8426336235        2.3805758414  W2        6342            0.0000000000
     19026      6342  TIP3      H2             17.5722112922       27.3967836235        1.8037058414  W2        6342            0.0000000000
     19027      6343  TIP3      OH2             1.4110012922       25.0224636235        5.4915158414  W2        6343            0.0000000000
     19028      6343  TIP3      H1              2.3304912922       24.9002936235        5.7278258414  W2        6343            0.0000000000
     19029      6343  TIP3      H2              0.9614512922       24.2724336235        5.8808658414  W2        6343            0.0000000000
     19030      6344  TIP3      OH2            19.4129412922       20.5546136235        7.3680958414  W2        6344            0.0000000000
     19031      6344  TIP3      H1             19.7626412922       19.9009636235        6.7625658414  W2        6344            0.0000000000
     19032      6344  TIP3      H2             19.5598912922       21.3920236235        6.9283558414  W2        6344            0.0000000000
     19033      6345  TIP3      OH2            17.1022412922       22.5192536235       -6.1490341586  W2        6345            0.0000000000
     19034      6345  TIP3      H1             17.2847412922       22.0704036235       -5.3235341586  W2        6345            0.0000000000
     19035      6345  TIP3      H2             16.5025312922       21.9346936235       -6.6125741586  W2        6345            0.0000000000
     19036      6346  TIP3      OH2             2.6322512922       23.3346236235       -1.6171941586  W2        6346            0.0000000000
     19037      6346  TIP3      H1              3.0774112922       22.5428736235       -1.3152241586  W2        6346            0.0000000000
     19038      6346  TIP3      H2              3.0985512922       24.0511436235       -1.1866341586  W2        6346            0.0000000000
     19039      6347  TIP3      OH2             0.9362812922       26.3339236235       -0.5481741586  W2        6347            0.0000000000
     19040      6347  TIP3      H1              1.4282612922       26.1129736235       -1.3389741586  W2        6347            0.0000000000
     19041      6347  TIP3      H2              1.2983712922       27.1742636235       -0.2672241586  W2        6347            0.0000000000
     19042      6348  TIP3      OH2            18.9326612922       22.6640736235        5.7172258414  W2        6348            0.0000000000
     19043      6348  TIP3      H1             18.0152312922       22.9347836235        5.6815758414  W2        6348            0.0000000000
     19044      6348  TIP3      H2             19.0556012922       22.1289136235        4.9331958414  W2        6348            0.0000000000
     19045      6349  TIP3      OH2            18.9688612922       22.5870636235       -9.6210041586  W2        6349            0.0000000000
     19046      6349  TIP3      H1             19.3811212922       21.8656336235      -10.0962041586  W2        6349            0.0000000000
     19047      6349  TIP3      H2             19.6505112922       23.2565236235       -9.5625741586  W2        6349            0.0000000000
     19048      6350  TIP3      OH2             1.2499312922       22.5918336235       -6.4939341586  W2        6350            0.0000000000
     19049      6350  TIP3      H1              0.3247712922       22.8004936235       -6.6233841586  W2        6350            0.0000000000
     19050      6350  TIP3      H2              1.7039212922       23.0759136235       -7.1837041586  W2        6350            0.0000000000
     19051      6351  TIP3      OH2             1.2134712922       21.3297336235        1.8503158414  W2        6351            0.0000000000
     19052      6351  TIP3      H1              0.5485212922       21.0837636235        2.4934058414  W2        6351            0.0000000000
     19053      6351  TIP3      H2              0.7706012922       21.9517736235        1.2731158414  W2        6351            0.0000000000
     19054      6352  TIP3      OH2             3.4054012922       34.5051436235        5.9948958414  W2        6352            0.0000000000
     19055      6352  TIP3      H1              2.5846512922       34.6797936235        5.5343658414  W2        6352            0.0000000000
     19056      6352  TIP3      H2              3.1531812922       34.4316136235        6.9153358414  W2        6352            0.0000000000
     19057      6353  TIP3      OH2             6.3596912922       35.4792636235        2.2532958414  W2        6353            0.0000000000
     19058      6353  TIP3      H1              5.9348012922       36.2891136235        1.9707558414  W2        6353            0.0000000000
     19059      6353  TIP3      H2              7.2639712922       35.5646736235        1.9512758414  W2        6353            0.0000000000
     19060      6354  TIP3      OH2            17.9332512922       20.7537036235        3.5363058414  W2        6354            0.0000000000
     19061      6354  TIP3      H1             17.1206012922       21.0787336235        3.1487758414  W2        6354            0.0000000000
     19062      6354  TIP3      H2             18.1661012922       19.9935536235        3.0032158414  W2        6354            0.0000000000
     19063      6355  TIP3      OH2             5.3174812922       36.0687736235       -2.1340041586  W2        6355            0.0000000000
     19064      6355  TIP3      H1              5.0985512922       35.1525136235       -1.9644041586  W2        6355            0.0000000000
     19065      6355  TIP3      H2              6.1417012922       36.2088136235       -1.6678641586  W2        6355            0.0000000000
     19066      6356  TIP3      OH2             7.8547312922       36.5387036235       -1.2852041586  W2        6356            0.0000000000
     19067      6356  TIP3      H1              8.0673012922       35.6506036235       -1.5721141586  W2        6356            0.0000000000
     19068      6356  TIP3      H2              7.9192412922       36.5044736235       -0.3308041586  W2        6356            0.0000000000
     19069      6357  TIP3      OH2            11.3631012922       22.2027636235       -2.1408741586  W2        6357            0.0000000000
     19070      6357  TIP3      H1             10.6887812922       21.5733236235       -1.8852941586  W2        6357            0.0000000000
     19071      6357  TIP3      H2             11.9270212922       21.7186536235       -2.7440841586  W2        6357            0.0000000000
     19072      6358  TIP3      OH2            16.5058212922       20.3101636235       -2.0281641586  W2        6358            0.0000000000
     19073      6358  TIP3      H1             17.1095812922       20.8577036235       -2.5300641586  W2        6358            0.0000000000
     19074      6358  TIP3      H2             15.6360212922       20.6292036235       -2.2687541586  W2        6358            0.0000000000
     19075      6359  TIP3      OH2            18.2328612922       21.4490336235       -3.6950741586  W2        6359            0.0000000000
     19076      6359  TIP3      H1             18.8446112922       20.9346036235       -4.2217141586  W2        6359            0.0000000000
     19077      6359  TIP3      H2             18.6152012922       22.3262436235       -3.6716341586  W2        6359            0.0000000000
     19078      6360  TIP3      OH2             3.6898512922       20.8367936235       -4.3188841586  W2        6360            0.0000000000
     19079      6360  TIP3      H1              2.9128312922       20.6022836235       -4.8262941586  W2        6360            0.0000000000
     19080      6360  TIP3      H2              4.2202112922       20.0400036235       -4.3100841586  W2        6360            0.0000000000
     19081      6361  TIP3      OH2             2.5261912922       20.6346036235       -8.5152741586  W2        6361            0.0000000000
     19082      6361  TIP3      H1              2.9652612922       21.2456536235       -9.1069241586  W2        6361            0.0000000000
     19083      6361  TIP3      H2              1.8924312922       21.1730136235       -8.0412741586  W2        6361            0.0000000000
     19084      6362  TIP3      OH2             8.2691112922       20.7635036235       -4.5055741586  W2        6362            0.0000000000
     19085      6362  TIP3      H1              9.1434512922       21.1519336235       -4.5351441586  W2        6362            0.0000000000
     19086      6362  TIP3      H2              8.1331912922       20.5482836235       -3.5828541586  W2        6362            0.0000000000
     19087      6363  TIP3      OH2            13.8259512922       20.7934836235       -2.8564041586  W2        6363            0.0000000000
     19088      6363  TIP3      H1             13.9021112922       20.8886436235       -3.8058041586  W2        6363            0.0000000000
     19089      6363  TIP3      H2             13.5508712922       19.8857736235       -2.7274941586  W2        6363            0.0000000000
     19090      6364  TIP3      OH2            15.1792112922       20.8192636235       -7.1639041586  W2        6364            0.0000000000
     19091      6364  TIP3      H1             14.4763212922       21.4341836235       -7.3737641586  W2        6364            0.0000000000
     19092      6364  TIP3      H2             14.7343512922       19.9819336235       -7.0328141586  W2        6364            0.0000000000
     19093      6365  TIP3      OH2             2.4271412922       36.5828236235       -7.6177641586  W2        6365            0.0000000000
     19094      6365  TIP3      H1              1.7421312922       36.5447136235       -8.2852541586  W2        6365            0.0000000000
     19095      6365  TIP3      H2              2.4308612922       37.4955836235       -7.3295541586  W2        6365            0.0000000000
     19096      6366  TIP3      OH2             4.3871012922       22.5507536235      -10.0728641586  W2        6366            0.0000000000
     19097      6366  TIP3      H1              4.8784412922       21.9209936235      -10.6003141586  W2        6366            0.0000000000
     19098      6366  TIP3      H2              5.0107312922       22.8466936235       -9.4097441586  W2        6366            0.0000000000
     19099      6367  TIP3      OH2             9.4131112922       22.8439036235       -7.6158141586  W2        6367            0.0000000000
     19100      6367  TIP3      H1              9.5912412922       22.1972236235       -6.9329541586  W2        6367            0.0000000000
     19101      6367  TIP3      H2              9.3597312922       23.6776736235       -7.1487041586  W2        6367            0.0000000000
     19102      6368  TIP3      OH2             3.6476512922       21.3509836235        5.1987358414  W2        6368            0.0000000000
     19103      6368  TIP3      H1              3.2814712922       20.5852436235        5.6412058414  W2        6368            0.0000000000
     19104      6368  TIP3      H2              4.5605012922       21.3800036235        5.4852458414  W2        6368            0.0000000000
     19105      6369  TIP3      OH2             5.6207312922       20.7014236235        6.7344458414  W2        6369            0.0000000000
     19106      6369  TIP3      H1              6.5190912922       20.4274436235        6.5497858414  W2        6369            0.0000000000
     19107      6369  TIP3      H2              5.2340412922       19.9590236235        7.1987058414  W2        6369            0.0000000000
     19108      6370  TIP3      OH2            14.0419612922       20.0339536235        6.9167258414  W2        6370            0.0000000000
     19109      6370  TIP3      H1             14.1186812922       19.6080236235        7.7704958414  W2        6370            0.0000000000
     19110      6370  TIP3      H2             14.9356212922       20.0474236235        6.5740758414  W2        6370            0.0000000000
     19111      6371  TIP3      OH2            17.2180712922       36.1065836235        5.6091458414  W2        6371            0.0000000000
     19112      6371  TIP3      H1             16.4362612922       35.9203836235        5.0892058414  W2        6371            0.0000000000
     19113      6371  TIP3      H2             17.1460612922       37.0360136235        5.8263958414  W2        6371            0.0000000000
     19114      6372  TIP3      OH2            31.6241112922       29.9930236235       -4.3601341586  W2        6372            0.0000000000
     19115      6372  TIP3      H1             31.7132212922       30.9368436235       -4.4924241586  W2        6372            0.0000000000
     19116      6372  TIP3      H2             30.9858712922       29.7176636235       -5.0181941586  W2        6372            0.0000000000
     19117      6373  TIP3      OH2            30.5572412922       29.2480936235       -0.9413141586  W2        6373            0.0000000000
     19118      6373  TIP3      H1             30.5189912922       28.6017236235       -0.2363541586  W2        6373            0.0000000000
     19119      6373  TIP3      H2             30.2348912922       28.7815336235       -1.7124441586  W2        6373            0.0000000000
     19120      6374  TIP3      OH2            22.9257412922       28.8623036235        0.6516758414  W2        6374            0.0000000000
     19121      6374  TIP3      H1             22.9669512922       28.2366336235        1.3749158414  W2        6374            0.0000000000
     19122      6374  TIP3      H2             23.6285112922       29.4861636235        0.8337158414  W2        6374            0.0000000000
     19123      6375  TIP3      OH2            34.2632612922       32.1871336235       -2.6398041586  W2        6375            0.0000000000
     19124      6375  TIP3      H1             33.8225312922       31.4667336235       -2.1892441586  W2        6375            0.0000000000
     19125      6375  TIP3      H2             34.2502312922       32.9078536235       -2.0100341586  W2        6375            0.0000000000
     19126      6376  TIP3      OH2            23.8490512922       33.3121936235       -0.8134141586  W2        6376            0.0000000000
     19127      6376  TIP3      H1             23.4795712922       32.5102436235       -1.1829841586  W2        6376            0.0000000000
     19128      6376  TIP3      H2             24.7901612922       33.1436836235       -0.7670741586  W2        6376            0.0000000000
     19129      6377  TIP3      OH2            20.4591012922       26.9724536235       -5.4205341586  W2        6377            0.0000000000
     19130      6377  TIP3      H1             20.0114412922       27.8183236235       -5.4388841586  W2        6377            0.0000000000
     19131      6377  TIP3      H2             19.8982212922       26.3928736235       -5.9360241586  W2        6377            0.0000000000
     19132      6378  TIP3      OH2            21.1697112922       29.1344136235       -3.2947341586  W2        6378            0.0000000000
     19133      6378  TIP3      H1             21.3830612922       28.3645736235       -2.7674341586  W2        6378            0.0000000000
     19134      6378  TIP3      H2             21.9074712922       29.2240836235       -3.8979741586  W2        6378            0.0000000000
     19135      6379  TIP3      OH2            28.9466812922       31.6802336235       -0.5352141586  W2        6379            0.0000000000
     19136      6379  TIP3      H1             29.2504712922       30.9943736235       -1.1298041586  W2        6379            0.0000000000
     19137      6379  TIP3      H2             29.6680812922       31.7991036235        0.0825858414  W2        6379            0.0000000000
     19138      6380  TIP3      OH2            32.0873812922       26.0744736235       -0.2077341586  W2        6380            0.0000000000
     19139      6380  TIP3      H1             32.2299712922       25.1281736235       -0.1875741586  W2        6380            0.0000000000
     19140      6380  TIP3      H2             31.9812812922       26.2814536235       -1.1362441586  W2        6380            0.0000000000
     19141      6381  TIP3      OH2            25.2422112922       24.1761136235       -2.9352541586  W2        6381            0.0000000000
     19142      6381  TIP3      H1             25.2853212922       25.0359636235       -3.3536241586  W2        6381            0.0000000000
     19143      6381  TIP3      H2             24.7846212922       23.6235836235       -3.5689341586  W2        6381            0.0000000000
     19144      6382  TIP3      OH2            32.9644812922       24.3066736235       -4.5344241586  W2        6382            0.0000000000
     19145      6382  TIP3      H1             33.6109112922       23.9779936235       -3.9096641586  W2        6382            0.0000000000
     19146      6382  TIP3      H2             33.4744212922       24.8245736235       -5.1572841586  W2        6382            0.0000000000
     19147      6383  TIP3      OH2            21.8623612922       26.5726936235       -2.1731141586  W2        6383            0.0000000000
     19148      6383  TIP3      H1             22.5160212922       26.0228636235       -1.7411041586  W2        6383            0.0000000000
     19149      6383  TIP3      H2             21.8862912922       26.2985936235       -3.0899141586  W2        6383            0.0000000000
     19150      6384  TIP3      OH2            27.0188112922       28.1228236235       -2.9579641586  W2        6384            0.0000000000
     19151      6384  TIP3      H1             27.6349112922       27.5963636235       -2.4485641586  W2        6384            0.0000000000
     19152      6384  TIP3      H2             26.4326912922       27.4826936235       -3.3616041586  W2        6384            0.0000000000
     19153      6385  TIP3      OH2            24.0524012922       23.0939536235        1.1388258414  W2        6385            0.0000000000
     19154      6385  TIP3      H1             23.8335712922       23.6240136235        0.3724258414  W2        6385            0.0000000000
     19155      6385  TIP3      H2             23.3844912922       23.3205036235        1.7859658414  W2        6385            0.0000000000
     19156      6386  TIP3      OH2            31.4213812922       32.5940636235       -5.3172641586  W2        6386            0.0000000000
     19157      6386  TIP3      H1             31.1258912922       32.2712936235       -6.1685741586  W2        6386            0.0000000000
     19158      6386  TIP3      H2             31.0971612922       33.4937336235       -5.2760041586  W2        6386            0.0000000000
     19159      6387  TIP3      OH2            26.6215412922       30.7695236235        1.4261958414  W2        6387            0.0000000000
     19160      6387  TIP3      H1             25.8814512922       31.3676736235        1.5297158414  W2        6387            0.0000000000
     19161      6387  TIP3      H2             27.3354912922       31.3234836235        1.1105558414  W2        6387            0.0000000000
     19162      6388  TIP3      OH2            34.7283212922       23.5976036235       -2.5538341586  W2        6388            0.0000000000
     19163      6388  TIP3      H1             34.5131212922       22.8319436235       -2.0212341586  W2        6388            0.0000000000
     19164      6388  TIP3      H2             35.3840612922       24.0700636235       -2.0409841586  W2        6388            0.0000000000
     19165      6389  TIP3      OH2            23.6461312922       24.9861336235       -0.9089541586  W2        6389            0.0000000000
     19166      6389  TIP3      H1             24.2597612922       25.6188936235       -0.5357141586  W2        6389            0.0000000000
     19167      6389  TIP3      H2             24.1582012922       24.5136336235       -1.5652641586  W2        6389            0.0000000000
     19168      6390  TIP3      OH2            25.0289712922       32.7338236235        2.2133458414  W2        6390            0.0000000000
     19169      6390  TIP3      H1             25.0237312922       33.6131736235        1.8352758414  W2        6390            0.0000000000
     19170      6390  TIP3      H2             24.1753812922       32.6502336235        2.6383358414  W2        6390            0.0000000000
     19171      6391  TIP3      OH2            21.1500612922       32.4046136235       -7.0047241586  W2        6391            0.0000000000
     19172      6391  TIP3      H1             20.8781512922       32.6337136235       -7.8934341586  W2        6391            0.0000000000
     19173      6391  TIP3      H2             21.1956312922       33.2424936235       -6.5441941586  W2        6391            0.0000000000
     19174      6392  TIP3      OH2            34.7750312922       34.0262036235       -0.2918741586  W2        6392            0.0000000000
     19175      6392  TIP3      H1             33.8334012922       34.0845936235       -0.1301841586  W2        6392            0.0000000000
     19176      6392  TIP3      H2             35.0516412922       34.9322536235       -0.4289041586  W2        6392            0.0000000000
     19177      6393  TIP3      OH2            35.0757312922       22.3127336235        1.1255158414  W2        6393            0.0000000000
     19178      6393  TIP3      H1             34.3396512922       22.9234436235        1.0876458414  W2        6393            0.0000000000
     19179      6393  TIP3      H2             35.7591312922       22.7276336235        0.5991558414  W2        6393            0.0000000000
     19180      6394  TIP3      OH2            28.0788712922       20.3994636235       -1.4086841586  W2        6394            0.0000000000
     19181      6394  TIP3      H1             27.9612912922       19.4510636235       -1.4628541586  W2        6394            0.0000000000
     19182      6394  TIP3      H2             27.2238812922       20.7320736235       -1.1355741586  W2        6394            0.0000000000
     19183      6395  TIP3      OH2            33.0271512922       35.8075536235       -3.6667141586  W2        6395            0.0000000000
     19184      6395  TIP3      H1             33.4523812922       35.1003436235       -4.1517541586  W2        6395            0.0000000000
     19185      6395  TIP3      H2             33.3441512922       36.6088236235       -4.0834941586  W2        6395            0.0000000000
     19186      6396  TIP3      OH2            34.1868012922       33.7084036235       -5.1580541586  W2        6396            0.0000000000
     19187      6396  TIP3      H1             33.9292812922       33.0184136235       -5.7694641586  W2        6396            0.0000000000
     19188      6396  TIP3      H2             34.2578812922       33.2655236235       -4.3124641586  W2        6396            0.0000000000
     19189      6397  TIP3      OH2            35.8728212922       32.2750736235        3.3192958414  W2        6397            0.0000000000
     19190      6397  TIP3      H1             36.0124512922       31.6833236235        2.5799958414  W2        6397            0.0000000000
     19191      6397  TIP3      H2             36.0401012922       33.1476636235        2.9631758414  W2        6397            0.0000000000
     19192      6398  TIP3      OH2            30.3453612922       29.2370236235       -6.9081041586  W2        6398            0.0000000000
     19193      6398  TIP3      H1             29.6339112922       29.7719936235       -7.2600541586  W2        6398            0.0000000000
     19194      6398  TIP3      H2             31.0363212922       29.2922336235       -7.5682141586  W2        6398            0.0000000000
     19195      6399  TIP3      OH2            30.3992812922       27.6944536235       -9.8696041586  W2        6399            0.0000000000
     19196      6399  TIP3      H1             31.1002712922       27.7171436235       -9.2182041586  W2        6399            0.0000000000
     19197      6399  TIP3      H2             30.7015712922       27.0664236235      -10.5256741586  W2        6399            0.0000000000
     19198      6400  TIP3      OH2            33.7511312922       29.4463536235       -5.9565141586  W2        6400            0.0000000000
     19199      6400  TIP3      H1             33.0192312922       29.6747236235       -5.3834541586  W2        6400            0.0000000000
     19200      6400  TIP3      H2             34.1983512922       28.7326236235       -5.5017641586  W2        6400            0.0000000000
     19201      6401  TIP3      OH2            33.6484812922       27.6206136235        3.1111858414  W2        6401            0.0000000000
     19202      6401  TIP3      H1             33.7283912922       28.3840536235        3.6830358414  W2        6401            0.0000000000
     19203      6401  TIP3      H2             33.0472512922       27.8998536235        2.4206958414  W2        6401            0.0000000000
     19204      6402  TIP3      OH2            25.3965012922       30.0769736235       -4.0740141586  W2        6402            0.0000000000
     19205      6402  TIP3      H1             25.0660212922       29.7063136235       -4.8923141586  W2        6402            0.0000000000
     19206      6402  TIP3      H2             25.9849112922       29.4063736235       -3.7271841586  W2        6402            0.0000000000
     19207      6403  TIP3      OH2            26.7632512922       33.5050336235       -1.3927941586  W2        6403            0.0000000000
     19208      6403  TIP3      H1             26.6683812922       32.9263436235       -2.1493341586  W2        6403            0.0000000000
     19209      6403  TIP3      H2             27.4926112922       33.1336036235       -0.8965141586  W2        6403            0.0000000000
     19210      6404  TIP3      OH2            25.7630512922       28.8455336235       -0.4405141586  W2        6404            0.0000000000
     19211      6404  TIP3      H1             26.3283012922       28.9669536235       -1.2033941586  W2        6404            0.0000000000
     19212      6404  TIP3      H2             26.0819412922       29.4830336235        0.1983358414  W2        6404            0.0000000000
     19213      6405  TIP3      OH2            32.0722712922       34.3487236235        0.2935358414  W2        6405            0.0000000000
     19214      6405  TIP3      H1             31.8319312922       35.0110336235        0.9414558414  W2        6405            0.0000000000
     19215      6405  TIP3      H2             31.8740912922       33.5142436235        0.7184958414  W2        6405            0.0000000000
     19216      6406  TIP3      OH2            26.6431212922       33.2448036235        4.2766758414  W2        6406            0.0000000000
     19217      6406  TIP3      H1             26.3318712922       34.0271236235        4.7319958414  W2        6406            0.0000000000
     19218      6406  TIP3      H2             25.9931412922       33.0917136235        3.5908758414  W2        6406            0.0000000000
     19219      6407  TIP3      OH2            32.6220812922       28.6086436235       -8.2713941586  W2        6407            0.0000000000
     19220      6407  TIP3      H1             33.2016312922       28.7586736235       -7.5245041586  W2        6407            0.0000000000
     19221      6407  TIP3      H2             33.0360812922       29.0793836235       -8.9947541586  W2        6407            0.0000000000
     19222      6408  TIP3      OH2            23.5631112922       29.4429136235        3.5052458414  W2        6408            0.0000000000
     19223      6408  TIP3      H1             23.6334312922       30.0935936235        4.2037458414  W2        6408            0.0000000000
     19224      6408  TIP3      H2             22.6723312922       29.5456636235        3.1703358414  W2        6408            0.0000000000
     19225      6409  TIP3      OH2            30.3485712922       35.3454936235       -4.8360841586  W2        6409            0.0000000000
     19226      6409  TIP3      H1             30.8223312922       35.6411236235       -4.0586641586  W2        6409            0.0000000000
     19227      6409  TIP3      H2             29.7855012922       36.0836536235       -5.0691241586  W2        6409            0.0000000000
     19228      6410  TIP3      OH2            24.8827112922       35.3163036235        5.0400558414  W2        6410            0.0000000000
     19229      6410  TIP3      H1             24.8902412922       35.1802736235        4.0926058414  W2        6410            0.0000000000
     19230      6410  TIP3      H2             23.9667512922       35.1991136235        5.2920558414  W2        6410            0.0000000000
     19231      6411  TIP3      OH2            36.3209212922       20.3586836235       -8.4584241586  W2        6411            0.0000000000
     19232      6411  TIP3      H1             35.4209912922       20.4975836235       -8.1633641586  W2        6411            0.0000000000
     19233      6411  TIP3      H2             36.5727612922       21.1901436235       -8.8602541586  W2        6411            0.0000000000
     19234      6412  TIP3      OH2            24.3867712922       29.1464036235       -6.4847341586  W2        6412            0.0000000000
     19235      6412  TIP3      H1             24.0949012922       29.9145736235       -6.9756041586  W2        6412            0.0000000000
     19236      6412  TIP3      H2             23.7122912922       28.4870236235       -6.6475941586  W2        6412            0.0000000000
     19237      6413  TIP3      OH2            20.4797812922       31.5093236235        2.3302458414  W2        6413            0.0000000000
     19238      6413  TIP3      H1             19.9786212922       31.4812636235        1.5152158414  W2        6413            0.0000000000
     19239      6413  TIP3      H2             20.4851512922       30.6036436235        2.6399758414  W2        6413            0.0000000000
     19240      6414  TIP3      OH2            20.2300512922       34.2897036235       -0.7857341586  W2        6414            0.0000000000
     19241      6414  TIP3      H1             21.1761112922       34.1454036235       -0.8047841586  W2        6414            0.0000000000
     19242      6414  TIP3      H2             20.1176812922       35.0739836235       -0.2486141586  W2        6414            0.0000000000
     19243      6415  TIP3      OH2            29.4063012922       34.5295936235        3.7727758414  W2        6415            0.0000000000
     19244      6415  TIP3      H1             29.4937612922       35.3560536235        4.2476858414  W2        6415            0.0000000000
     19245      6415  TIP3      H2             28.5428112922       34.1999736235        4.0217058414  W2        6415            0.0000000000
     19246      6416  TIP3      OH2            35.5798812922       26.4489236235        5.3768558414  W2        6416            0.0000000000
     19247      6416  TIP3      H1             35.1725612922       26.9294836235        4.6561858414  W2        6416            0.0000000000
     19248      6416  TIP3      H2             35.6204512922       25.5435236235        5.0689358414  W2        6416            0.0000000000
     19249      6417  TIP3      OH2            22.7288312922       32.8328636235        3.3735258414  W2        6417            0.0000000000
     19250      6417  TIP3      H1             22.9449612922       32.4714236235        4.2331058414  W2        6417            0.0000000000
     19251      6417  TIP3      H2             21.8733012922       32.4582436235        3.1638758414  W2        6417            0.0000000000
     19252      6418  TIP3      OH2            25.3476312922       21.3029136235       -0.6310541586  W2        6418            0.0000000000
     19253      6418  TIP3      H1             24.4860012922       21.2157336235       -1.0387641586  W2        6418            0.0000000000
     19254      6418  TIP3      H2             25.3252012922       22.1589236235       -0.2032941586  W2        6418            0.0000000000
     19255      6419  TIP3      OH2            30.0104112922       21.0249536235        2.7436458414  W2        6419            0.0000000000
     19256      6419  TIP3      H1             30.4307212922       20.6096636235        3.4967058414  W2        6419            0.0000000000
     19257      6419  TIP3      H2             29.0773712922       20.8462836235        2.8608458414  W2        6419            0.0000000000
     19258      6420  TIP3      OH2            33.3369012922       24.7804736235        3.5970958414  W2        6420            0.0000000000
     19259      6420  TIP3      H1             32.8228512922       24.6546936235        4.3946958414  W2        6420            0.0000000000
     19260      6420  TIP3      H2             33.1813712922       25.6927836235        3.3527158414  W2        6420            0.0000000000
     19261      6421  TIP3      OH2            34.0993912922       29.6414736235      -10.6416041586  W2        6421            0.0000000000
     19262      6421  TIP3      H1             34.1414712922       29.4188636235      -11.5716041586  W2        6421            0.0000000000
     19263      6421  TIP3      H2             34.9486012922       30.0401836235      -10.4516141586  W2        6421            0.0000000000
     19264      6422  TIP3      OH2            29.6721412922       23.5172936235       -9.9712741586  W2        6422            0.0000000000
     19265      6422  TIP3      H1             29.4186212922       23.5364536235       -9.0484641586  W2        6422            0.0000000000
     19266      6422  TIP3      H2             29.4153512922       22.6458336235      -10.2726541586  W2        6422            0.0000000000
     19267      6423  TIP3      OH2            25.4386412922       26.2683636235        0.4639658414  W2        6423            0.0000000000
     19268      6423  TIP3      H1             24.7968512922       26.2280936235        1.1729758414  W2        6423            0.0000000000
     19269      6423  TIP3      H2             25.4758412922       27.1948336235        0.2262658414  W2        6423            0.0000000000
     19270      6424  TIP3      OH2            25.4355512922       26.4893736235       -4.6240341586  W2        6424            0.0000000000
     19271      6424  TIP3      H1             24.5428412922       26.1489836235       -4.6826541586  W2        6424            0.0000000000
     19272      6424  TIP3      H2             25.8862112922       26.1124636235       -5.3797141586  W2        6424            0.0000000000
     19273      6425  TIP3      OH2            30.9711012922       26.9054036235       -5.8069541586  W2        6425            0.0000000000
     19274      6425  TIP3      H1             30.5621312922       27.7202636235       -6.0984741586  W2        6425            0.0000000000
     19275      6425  TIP3      H2             31.6917212922       26.7654136235       -6.4212441586  W2        6425            0.0000000000
     19276      6426  TIP3      OH2            30.0732612922       27.0810436235        5.6811158414  W2        6426            0.0000000000
     19277      6426  TIP3      H1             29.5106412922       26.3762036235        6.0018958414  W2        6426            0.0000000000
     19278      6426  TIP3      H2             30.8996012922       26.9602336235        6.1488758414  W2        6426            0.0000000000
     19279      6427  TIP3      OH2            31.9758712922       26.3514436235       -2.9929841586  W2        6427            0.0000000000
     19280      6427  TIP3      H1             31.7803212922       26.9571236235       -3.7079241586  W2        6427            0.0000000000
     19281      6427  TIP3      H2             32.1571312922       25.5179636235       -3.4273541586  W2        6427            0.0000000000
     19282      6428  TIP3      OH2            23.1886912922       26.5887136235        2.3311658414  W2        6428            0.0000000000
     19283      6428  TIP3      H1             23.1506312922       26.9888736235        3.1998758414  W2        6428            0.0000000000
     19284      6428  TIP3      H2             22.6978012922       25.7719536235        2.4214558414  W2        6428            0.0000000000
     19285      6429  TIP3      OH2            26.5544312922       23.9629436235      -10.8702341586  W2        6429            0.0000000000
     19286      6429  TIP3      H1             26.1235012922       23.5179536235      -10.1404941586  W2        6429            0.0000000000
     19287      6429  TIP3      H2             25.8363012922       24.3345736235      -11.3824841586  W2        6429            0.0000000000
     19288      6430  TIP3      OH2            19.7967712922       23.7048936235       -3.8183641586  W2        6430            0.0000000000
     19289      6430  TIP3      H1             20.4275412922       23.6761036235       -3.0989741586  W2        6430            0.0000000000
     19290      6430  TIP3      H2             20.2462012922       23.2797636235       -4.5487741586  W2        6430            0.0000000000
     19291      6431  TIP3      OH2            21.0709812922       24.4510936235       -8.3943241586  W2        6431            0.0000000000
     19292      6431  TIP3      H1             21.5451512922       25.0420836235       -8.9792341586  W2        6431            0.0000000000
     19293      6431  TIP3      H2             20.3536212922       24.9813836235       -8.0473141586  W2        6431            0.0000000000
     19294      6432  TIP3      OH2            31.2397912922       27.9895736235        1.6782558414  W2        6432            0.0000000000
     19295      6432  TIP3      H1             31.5632712922       27.3585436235        1.0353058414  W2        6432            0.0000000000
     19296      6432  TIP3      H2             30.7997212922       27.4547936235        2.3389958414  W2        6432            0.0000000000
     19297      6433  TIP3      OH2            28.0170812922       23.9171236235       -3.5376241586  W2        6433            0.0000000000
     19298      6433  TIP3      H1             27.1061912922       23.9738036235       -3.2490241586  W2        6433            0.0000000000
     19299      6433  TIP3      H2             28.5223712922       23.8566736235       -2.7269041586  W2        6433            0.0000000000
     19300      6434  TIP3      OH2            22.8454212922       25.5457536235       -4.7108641586  W2        6434            0.0000000000
     19301      6434  TIP3      H1             21.9562212922       25.6453036235       -5.0509041586  W2        6434            0.0000000000
     19302      6434  TIP3      H2             23.1419112922       24.7040536235       -5.0570741586  W2        6434            0.0000000000
     19303      6435  TIP3      OH2            26.4986012922       25.5460136235       -7.0544041586  W2        6435            0.0000000000
     19304      6435  TIP3      H1             27.4301512922       25.6750136235       -6.8760941586  W2        6435            0.0000000000
     19305      6435  TIP3      H2             26.2836312922       26.2154436235       -7.7039341586  W2        6435            0.0000000000
     19306      6436  TIP3      OH2            32.4222712922       23.1517536235       -0.2734441586  W2        6436            0.0000000000
     19307      6436  TIP3      H1             31.7454312922       23.2830636235        0.3905258414  W2        6436            0.0000000000
     19308      6436  TIP3      H2             31.9367612922       22.9967036235       -1.0836741586  W2        6436            0.0000000000
     19309      6437  TIP3      OH2            25.1726212922       26.7402336235       -9.4877941586  W2        6437            0.0000000000
     19310      6437  TIP3      H1             24.6301312922       26.3606136235      -10.1790341586  W2        6437            0.0000000000
     19311      6437  TIP3      H2             26.0061112922       26.9347036235       -9.9163841586  W2        6437            0.0000000000
     19312      6438  TIP3      OH2            23.3077612922       31.2974236235        5.6113658414  W2        6438            0.0000000000
     19313      6438  TIP3      H1             24.0400012922       31.5520136235        6.1728158414  W2        6438            0.0000000000
     19314      6438  TIP3      H2             22.5276312922       31.5019636235        6.1269058414  W2        6438            0.0000000000
     19315      6439  TIP3      OH2            29.3370512922       26.7044236235       -1.6506641586  W2        6439            0.0000000000
     19316      6439  TIP3      H1             29.9013912922       26.1580836235       -2.1977041586  W2        6439            0.0000000000
     19317      6439  TIP3      H2             29.1893912922       26.1826136235       -0.8619041586  W2        6439            0.0000000000
     19318      6440  TIP3      OH2            24.3390212922       22.8410336235       -5.2321841586  W2        6440            0.0000000000
     19319      6440  TIP3      H1             24.0219712922       21.9385636235       -5.2676441586  W2        6440            0.0000000000
     19320      6440  TIP3      H2             25.1204312922       22.8427736235       -5.7850241586  W2        6440            0.0000000000
     19321      6441  TIP3      OH2            27.9636412922       25.0930336235        0.7633758414  W2        6441            0.0000000000
     19322      6441  TIP3      H1             27.1281712922       25.5469836235        0.8736158414  W2        6441            0.0000000000
     19323      6441  TIP3      H2             28.4877012922       25.3688836235        1.5153658414  W2        6441            0.0000000000
     19324      6442  TIP3      OH2            28.5079012922       31.3058036235       -7.5519841586  W2        6442            0.0000000000
     19325      6442  TIP3      H1             27.7630012922       30.7983336235       -7.8741941586  W2        6442            0.0000000000
     19326      6442  TIP3      H2             28.3736212922       31.3546036235       -6.6055041586  W2        6442            0.0000000000
     19327      6443  TIP3      OH2            35.6577912922       30.4386236235        1.2347758414  W2        6443            0.0000000000
     19328      6443  TIP3      H1             36.2996712922       30.8952536235        0.6909958414  W2        6443            0.0000000000
     19329      6443  TIP3      H2             34.8274812922       30.5518636235        0.7721858414  W2        6443            0.0000000000
     19330      6444  TIP3      OH2            32.4055812922       24.1197936235       -9.3527241586  W2        6444            0.0000000000
     19331      6444  TIP3      H1             31.4670012922       24.2313536235       -9.5038441586  W2        6444            0.0000000000
     19332      6444  TIP3      H2             32.7027912922       24.9764836235       -9.0461541586  W2        6444            0.0000000000
     19333      6445  TIP3      OH2            30.0271112922       31.4901336235        3.6849258414  W2        6445            0.0000000000
     19334      6445  TIP3      H1             29.6817212922       31.1083736235        4.4918858414  W2        6445            0.0000000000
     19335      6445  TIP3      H2             29.8271212922       32.4234936235        3.7562158414  W2        6445            0.0000000000
     19336      6446  TIP3      OH2            33.1239312922       25.9870636235       -7.6919841586  W2        6446            0.0000000000
     19337      6446  TIP3      H1             34.0158312922       25.8495636235       -7.3728641586  W2        6446            0.0000000000
     19338      6446  TIP3      H2             33.1802912922       26.7776736235       -8.2286341586  W2        6446            0.0000000000
     19339      6447  TIP3      OH2            23.6327312922       30.6008036235       -1.7821941586  W2        6447            0.0000000000
     19340      6447  TIP3      H1             24.3774512922       30.5983736235       -2.3835441586  W2        6447            0.0000000000
     19341      6447  TIP3      H2             23.7103912922       29.7771836235       -1.3006841586  W2        6447            0.0000000000
     19342      6448  TIP3      OH2            30.6333112922       32.7642336235       -8.5265241586  W2        6448            0.0000000000
     19343      6448  TIP3      H1             30.3381512922       33.5910236235       -8.1450441586  W2        6448            0.0000000000
     19344      6448  TIP3      H2             29.9303112922       32.1449236235       -8.3303841586  W2        6448            0.0000000000
     19345      6449  TIP3      OH2            20.6407012922       29.0614936235        3.5326558414  W2        6449            0.0000000000
     19346      6449  TIP3      H1             20.8635612922       28.6434536235        4.3644058414  W2        6449            0.0000000000
     19347      6449  TIP3      H2             20.0387112922       28.4489936235        3.1099358414  W2        6449            0.0000000000
     19348      6450  TIP3      OH2            27.6571912922       28.5784836235        5.7456258414  W2        6450            0.0000000000
     19349      6450  TIP3      H1             27.3612712922       28.4127836235        4.8505358414  W2        6450            0.0000000000
     19350      6450  TIP3      H2             28.5887112922       28.3585136235        5.7350158414  W2        6450            0.0000000000
     19351      6451  TIP3      OH2            32.2774712922       33.9516836235        3.6354258414  W2        6451            0.0000000000
     19352      6451  TIP3      H1             31.3769012922       34.1349436235        3.3678158414  W2        6451            0.0000000000
     19353      6451  TIP3      H2             32.3115812922       34.2106136235        4.5563058414  W2        6451            0.0000000000
     19354      6452  TIP3      OH2            36.3039712922       34.9825136235       -7.5321041586  W2        6452            0.0000000000
     19355      6452  TIP3      H1             35.9310812922       34.1568936235       -7.2230441586  W2        6452            0.0000000000
     19356      6452  TIP3      H2             36.5813212922       34.7994536235       -8.4297641586  W2        6452            0.0000000000
     19357      6453  TIP3      OH2            33.4643612922       29.7904636235       -0.5109141586  W2        6453            0.0000000000
     19358      6453  TIP3      H1             32.5360512922       29.5586536235       -0.5379841586  W2        6453            0.0000000000
     19359      6453  TIP3      H2             33.9154712922       29.0134436235       -0.8410341586  W2        6453            0.0000000000
     19360      6454  TIP3      OH2            26.0076712922       34.1186236235       -4.3780441586  W2        6454            0.0000000000
     19361      6454  TIP3      H1             26.5348912922       34.8920636235       -4.5781641586  W2        6454            0.0000000000
     19362      6454  TIP3      H2             25.1275212922       34.3435436235       -4.6796441586  W2        6454            0.0000000000
     19363      6455  TIP3      OH2            21.7624412922       28.9810336235       -9.7908041586  W2        6455            0.0000000000
     19364      6455  TIP3      H1             22.3784312922       29.6077536235       -9.4113241586  W2        6455            0.0000000000
     19365      6455  TIP3      H2             20.9007012922       29.2970136235       -9.5191541586  W2        6455            0.0000000000
     19366      6456  TIP3      OH2            27.4349012922       31.7816136235       -4.8016141586  W2        6456            0.0000000000
     19367      6456  TIP3      H1             27.1939012922       32.7070536235       -4.7600841586  W2        6456            0.0000000000
     19368      6456  TIP3      H2             26.6942612922       31.3227436235       -4.4052241586  W2        6456            0.0000000000
     19369      6457  TIP3      OH2            27.9495612922       35.9309736235        1.5134958414  W2        6457            0.0000000000
     19370      6457  TIP3      H1             28.3120312922       36.7855336235        1.2799358414  W2        6457            0.0000000000
     19371      6457  TIP3      H2             28.4810812922       35.6391336235        2.2541258414  W2        6457            0.0000000000
     19372      6458  TIP3      OH2            26.1179812922       36.8033736235       -5.2563941586  W2        6458            0.0000000000
     19373      6458  TIP3      H1             25.1680312922       36.9091136235       -5.2050641586  W2        6458            0.0000000000
     19374      6458  TIP3      H2             26.4697912922       37.6241136235       -4.9116441586  W2        6458            0.0000000000
     19375      6459  TIP3      OH2            31.4936412922       32.0300436235        1.2140558414  W2        6459            0.0000000000
     19376      6459  TIP3      H1             31.0677712922       31.8022136235        2.0404558414  W2        6459            0.0000000000
     19377      6459  TIP3      H2             32.0742212922       31.2912236235        1.0315858414  W2        6459            0.0000000000
     19378      6460  TIP3      OH2            33.6965312922       32.9590936235       -9.7120441586  W2        6460            0.0000000000
     19379      6460  TIP3      H1             34.0498412922       32.5790736235       -8.9076941586  W2        6460            0.0000000000
     19380      6460  TIP3      H2             32.7478812922       32.8655736235       -9.6251141586  W2        6460            0.0000000000
     19381      6461  TIP3      OH2            34.1520612922       36.5819936235        3.6835358414  W2        6461            0.0000000000
     19382      6461  TIP3      H1             33.5503812922       36.0262836235        3.1881658414  W2        6461            0.0000000000
     19383      6461  TIP3      H2             34.4334312922       37.2489736235        3.0572758414  W2        6461            0.0000000000
     19384      6462  TIP3      OH2            22.2746512922       23.8147636235        3.0907958414  W2        6462            0.0000000000
     19385      6462  TIP3      H1             21.3818812922       24.1533036235        3.0231958414  W2        6462            0.0000000000
     19386      6462  TIP3      H2             22.1759312922       22.9593736235        3.5088758414  W2        6462            0.0000000000
     19387      6463  TIP3      OH2            34.5624612922       31.6312936235       -7.4852541586  W2        6463            0.0000000000
     19388      6463  TIP3      H1             34.2852212922       30.9032236235       -6.9291441586  W2        6463            0.0000000000
     19389      6463  TIP3      H2             35.4897612922       31.7504936235       -7.2799941586  W2        6463            0.0000000000
     19390      6464  TIP3      OH2            21.9258512922       35.6192036235        1.5257358414  W2        6464            0.0000000000
     19391      6464  TIP3      H1             22.1428812922       34.6874436235        1.4947058414  W2        6464            0.0000000000
     19392      6464  TIP3      H2             22.1722012922       35.8937036235        2.4090158414  W2        6464            0.0000000000
     19393      6465  TIP3      OH2            27.7873112922       34.0707036235      -11.2650441586  W2        6465            0.0000000000
     19394      6465  TIP3      H1             28.0262912922       33.3225136235      -11.8121541586  W2        6465            0.0000000000
     19395      6465  TIP3      H2             27.5184412922       33.6828736235      -10.4322641586  W2        6465            0.0000000000
     19396      6466  TIP3      OH2            26.7243712922       33.6410836235       -8.8087841586  W2        6466            0.0000000000
     19397      6466  TIP3      H1             26.8711712922       33.1210636235       -8.0186941586  W2        6466            0.0000000000
     19398      6466  TIP3      H2             26.7215412922       34.5478436235       -8.5021941586  W2        6466            0.0000000000
     19399      6467  TIP3      OH2            23.1774812922       30.8934136235       -8.2982441586  W2        6467            0.0000000000
     19400      6467  TIP3      H1             22.4914112922       31.2456636235       -7.7312741586  W2        6467            0.0000000000
     19401      6467  TIP3      H2             23.7002712922       31.6563736235       -8.5448141586  W2        6467            0.0000000000
     19402      6468  TIP3      OH2            31.0089912922       23.5557936235        1.9806558414  W2        6468            0.0000000000
     19403      6468  TIP3      H1             31.7077812922       23.6296636235        2.6306258414  W2        6468            0.0000000000
     19404      6468  TIP3      H2             30.6281312922       22.6912936235        2.1349458414  W2        6468            0.0000000000
     19405      6469  TIP3      OH2            31.7934812922       23.2079636235       -6.9221141586  W2        6469            0.0000000000
     19406      6469  TIP3      H1             32.0133112922       23.6795036235       -7.7255741586  W2        6469            0.0000000000
     19407      6469  TIP3      H2             32.3518812922       23.6022236235       -6.2520541586  W2        6469            0.0000000000
     19408      6470  TIP3      OH2            29.4620912922       35.3384436235       -8.0593641586  W2        6470            0.0000000000
     19409      6470  TIP3      H1             28.6457012922       35.8354136235       -8.0069341586  W2        6470            0.0000000000
     19410      6470  TIP3      H2             29.9917212922       35.8137936235       -8.6994841586  W2        6470            0.0000000000
     19411      6471  TIP3      OH2            28.9934712922       24.9358436235       -6.0872741586  W2        6471            0.0000000000
     19412      6471  TIP3      H1             29.8057312922       25.4401636235       -6.0411041586  W2        6471            0.0000000000
     19413      6471  TIP3      H2             28.7487712922       24.7908136235       -5.1733141586  W2        6471            0.0000000000
     19414      6472  TIP3      OH2            29.5291112922       25.9221136235        3.0973858414  W2        6472            0.0000000000
     19415      6472  TIP3      H1             29.6481412922       26.4956536235        3.8544258414  W2        6472            0.0000000000
     19416      6472  TIP3      H2             30.1845712922       25.2340536235        3.2121658414  W2        6472            0.0000000000
     19417      6473  TIP3      OH2            29.8771412922       22.0171436235       -5.1491641586  W2        6473            0.0000000000
     19418      6473  TIP3      H1             29.5304912922       22.6342036235       -4.5047341586  W2        6473            0.0000000000
     19419      6473  TIP3      H2             30.5358312922       22.5177136235       -5.6306141586  W2        6473            0.0000000000
     19420      6474  TIP3      OH2            26.8004012922       36.3821636235       -8.0776741586  W2        6474            0.0000000000
     19421      6474  TIP3      H1             26.9612712922       37.1819136235       -8.5784141586  W2        6474            0.0000000000
     19422      6474  TIP3      H2             26.6031812922       36.6887636235       -7.1926141586  W2        6474            0.0000000000
     19423      6475  TIP3      OH2            25.5348412922       23.0800836235       -8.4619141586  W2        6475            0.0000000000
     19424      6475  TIP3      H1             25.4513212922       23.9683936235       -8.1152741586  W2        6475            0.0000000000
     19425      6475  TIP3      H2             26.4248712922       22.8147536235       -8.2302341586  W2        6475            0.0000000000
     19426      6476  TIP3      OH2            35.7336912922       23.8291436235        3.9323558414  W2        6476            0.0000000000
     19427      6476  TIP3      H1             34.8172712922       24.0913136235        3.8447258414  W2        6476            0.0000000000
     19428      6476  TIP3      H2             36.0691912922       23.8260436235        3.0358858414  W2        6476            0.0000000000
     19429      6477  TIP3      OH2            34.3357912922       27.5792436235       -1.9719141586  W2        6477            0.0000000000
     19430      6477  TIP3      H1             33.5382312922       27.1642636235       -2.3004141586  W2        6477            0.0000000000
     19431      6477  TIP3      H2             34.7809012922       26.8886136235       -1.4808641586  W2        6477            0.0000000000
     19432      6478  TIP3      OH2            23.7933712922       33.5073036235       -9.4014641586  W2        6478            0.0000000000
     19433      6478  TIP3      H1             24.3855212922       34.2067836235       -9.1252241586  W2        6478            0.0000000000
     19434      6478  TIP3      H2             24.2526712922       33.0742536235      -10.1210041586  W2        6478            0.0000000000
     19435      6479  TIP3      OH2            22.1092912922       26.1716036235      -10.2855241586  W2        6479            0.0000000000
     19436      6479  TIP3      H1             22.0645512922       27.1109136235      -10.1068241586  W2        6479            0.0000000000
     19437      6479  TIP3      H2             21.2216112922       25.9360936235      -10.5553141586  W2        6479            0.0000000000
     19438      6480  TIP3      OH2            22.9174912922       20.9532636235       -1.6124241586  W2        6480            0.0000000000
     19439      6480  TIP3      H1             22.6884712922       21.0125136235       -2.5399241586  W2        6480            0.0000000000
     19440      6480  TIP3      H2             22.4748312922       20.1618136235       -1.3060141586  W2        6480            0.0000000000
     19441      6481  TIP3      OH2            21.8478212922       34.8939736235       -5.4518441586  W2        6481            0.0000000000
     19442      6481  TIP3      H1             21.0156812922       35.3662436235       -5.4247041586  W2        6481            0.0000000000
     19443      6481  TIP3      H2             22.3936512922       35.4037336235       -6.0505341586  W2        6481            0.0000000000
     19444      6482  TIP3      OH2            25.7335312922       36.4257836235        7.4983758414  W2        6482            0.0000000000
     19445      6482  TIP3      H1             26.5012512922       35.9668636235        7.8392958414  W2        6482            0.0000000000
     19446      6482  TIP3      H2             25.7121512922       36.1997636235        6.5684958414  W2        6482            0.0000000000
     19447      6483  TIP3      OH2            29.8254912922       35.9338436235      -11.1264441586  W2        6483            0.0000000000
     19448      6483  TIP3      H1             29.1815912922       35.3027036235      -10.8050741586  W2        6483            0.0000000000
     19449      6483  TIP3      H2             30.5873212922       35.4026436235      -11.3580941586  W2        6483            0.0000000000
     19450      6484  TIP3      OH2            32.3104012922       34.8058936235        6.2275258414  W2        6484            0.0000000000
     19451      6484  TIP3      H1             31.9593512922       33.9491936235        6.4705658414  W2        6484            0.0000000000
     19452      6484  TIP3      H2             33.0367212922       34.9485636235        6.8344258414  W2        6484            0.0000000000
     19453      6485  TIP3      OH2            34.4297812922       35.7508336235      -10.8926441586  W2        6485            0.0000000000
     19454      6485  TIP3      H1             34.7128212922       34.9563536235      -10.4399541586  W2        6485            0.0000000000
     19455      6485  TIP3      H2             35.1695712922       35.9839336235      -11.4535341586  W2        6485            0.0000000000
     19456      6486  TIP3      OH2            21.0431412922       31.3167536235        6.8323858414  W2        6486            0.0000000000
     19457      6486  TIP3      H1             21.1871912922       30.4148236235        6.5460558414  W2        6486            0.0000000000
     19458      6486  TIP3      H2             20.2708812922       31.6029636235        6.3446158414  W2        6486            0.0000000000
     19459      6487  TIP3      OH2            25.3845112922       31.6603236235      -11.0351541586  W2        6487            0.0000000000
     19460      6487  TIP3      H1             25.4489212922       30.8662836235      -10.5045141586  W2        6487            0.0000000000
     19461      6487  TIP3      H2             26.0374312922       31.5416036235      -11.7249541586  W2        6487            0.0000000000
     19462      6488  TIP3      OH2            27.6987512922       31.2865636235        6.2650258414  W2        6488            0.0000000000
     19463      6488  TIP3      H1             27.3701312922       31.5573736235        5.4077658414  W2        6488            0.0000000000
     19464      6488  TIP3      H2             27.8505712922       30.3455436235        6.1775258414  W2        6488            0.0000000000
     19465      6489  TIP3      OH2            30.7368512922       32.7074936235      -11.2993541586  W2        6489            0.0000000000
     19466      6489  TIP3      H1             30.4682612922       32.8877036235      -10.3984641586  W2        6489            0.0000000000
     19467      6489  TIP3      H2             30.5304112922       31.7821136235      -11.4307741586  W2        6489            0.0000000000
     19468      6490  TIP3      OH2            33.4332712922       31.2022936235        3.6482558414  W2        6490            0.0000000000
     19469      6490  TIP3      H1             34.1787512922       31.7906636235        3.5286558414  W2        6490            0.0000000000
     19470      6490  TIP3      H2             32.6759512922       31.7842636235        3.7115658414  W2        6490            0.0000000000
     19471      6491  TIP3      OH2            21.8757912922       28.5170836235        6.2523158414  W2        6491            0.0000000000
     19472      6491  TIP3      H1             22.2839112922       27.6597436235        6.1313758414  W2        6491            0.0000000000
     19473      6491  TIP3      H2             21.6155512922       28.5312136235        7.1733458414  W2        6491            0.0000000000
     19474      6492  TIP3      OH2            26.5338912922       29.6329436235       -8.7293541586  W2        6492            0.0000000000
     19475      6492  TIP3      H1             26.0740912922       29.1487736235       -8.0435041586  W2        6492            0.0000000000
     19476      6492  TIP3      H2             26.7887612922       28.9644836235       -9.3653041586  W2        6492            0.0000000000
     19477      6493  TIP3      OH2            25.8228212922       27.5256536235        3.6266058414  W2        6493            0.0000000000
     19478      6493  TIP3      H1             25.2044312922       28.2003136235        3.9070758414  W2        6493            0.0000000000
     19479      6493  TIP3      H2             26.1669412922       27.8470436235        2.7932258414  W2        6493            0.0000000000
     19480      6494  TIP3      OH2            27.6049312922       27.8761236235      -10.4670341586  W2        6494            0.0000000000
     19481      6494  TIP3      H1             27.4244312922       27.7212436235      -11.3942041586  W2        6494            0.0000000000
     19482      6494  TIP3      H2             28.5549812922       27.9839936235      -10.4222441586  W2        6494            0.0000000000
     19483      6495  TIP3      OH2            30.8426412922       29.9971836235        6.9040858414  W2        6495            0.0000000000
     19484      6495  TIP3      H1             31.7957612922       30.0810936235        6.8766858414  W2        6495            0.0000000000
     19485      6495  TIP3      H2             30.6821012922       29.2853636235        7.5235758414  W2        6495            0.0000000000
     19486      6496  TIP3      OH2            26.1621912922       24.8807336235        4.7089158414  W2        6496            0.0000000000
     19487      6496  TIP3      H1             26.3122812922       24.1518636235        4.1068858414  W2        6496            0.0000000000
     19488      6496  TIP3      H2             26.1644312922       25.6579036235        4.1501358414  W2        6496            0.0000000000
     19489      6497  TIP3      OH2            26.5747612922       23.2503136235        2.2016558414  W2        6497            0.0000000000
     19490      6497  TIP3      H1             27.1105112922       23.7019836235        1.5495858414  W2        6497            0.0000000000
     19491      6497  TIP3      H2             25.7227212922       23.1422936235        1.7790658414  W2        6497            0.0000000000
     19492      6498  TIP3      OH2            28.1566012922       28.6899336235        2.4411758414  W2        6498            0.0000000000
     19493      6498  TIP3      H1             28.9070812922       28.5336836235        1.8679558414  W2        6498            0.0000000000
     19494      6498  TIP3      H2             27.8174312922       29.5415936235        2.1657258414  W2        6498            0.0000000000
     19495      6499  TIP3      OH2            32.5722212922       26.5051136235        7.4697058414  W2        6499            0.0000000000
     19496      6499  TIP3      H1             32.7643512922       25.5740536235        7.3581558414  W2        6499            0.0000000000
     19497      6499  TIP3      H2             33.4298512922       26.9300636235        7.4592458414  W2        6499            0.0000000000
     19498      6500  TIP3      OH2            33.8889412922       29.2936336235        5.5469758414  W2        6500            0.0000000000
     19499      6500  TIP3      H1             33.6074412922       30.0030936235        4.9693558414  W2        6500            0.0000000000
     19500      6500  TIP3      H2             34.8313712922       29.2209336235        5.3960958414  W2        6500            0.0000000000
     19501      6501  TIP3      OH2            24.6408212922       26.0790836235        6.6204758414  W2        6501            0.0000000000
     19502      6501  TIP3      H1             23.8737212922       25.5465636235        6.4102358414  W2        6501            0.0000000000
     19503      6501  TIP3      H2             25.3197212922       25.7691236235        6.0211058414  W2        6501            0.0000000000
     19504      6502  TIP3      OH2            27.3803112922       20.7068836235        2.6330158414  W2        6502            0.0000000000
     19505      6502  TIP3      H1             27.2822712922       21.6532036235        2.5276358414  W2        6502            0.0000000000
     19506      6502  TIP3      H2             26.6379312922       20.3342636235        2.1573658414  W2        6502            0.0000000000
     19507      6503  TIP3      OH2            28.6443612922       25.0284236235        6.1968558414  W2        6503            0.0000000000
     19508      6503  TIP3      H1             28.4089012922       24.8090936235        7.0983458414  W2        6503            0.0000000000
     19509      6503  TIP3      H2             27.8610512922       24.8215436235        5.6871058414  W2        6503            0.0000000000
     19510      6504  TIP3      OH2            31.3600212922       24.1557736235        5.2722058414  W2        6504            0.0000000000
     19511      6504  TIP3      H1             30.4125612922       24.1877436235        5.4045358414  W2        6504            0.0000000000
     19512      6504  TIP3      H2             31.6726912922       23.5304836235        5.9260258414  W2        6504            0.0000000000
     19513      6505  TIP3      OH2            32.9941712922       22.7898836235        7.2773958414  W2        6505            0.0000000000
     19514      6505  TIP3      H1             32.8973512922       21.8376136235        7.2715858414  W2        6505            0.0000000000
     19515      6505  TIP3      H2             32.6724812922       23.0585636235        8.1379458414  W2        6505            0.0000000000
     19516      6506  TIP3      OH2            22.8211012922       23.9994636235        6.3249458414  W2        6506            0.0000000000
     19517      6506  TIP3      H1             23.0328412922       23.2930736235        5.7146958414  W2        6506            0.0000000000
     19518      6506  TIP3      H2             22.7098512922       23.5620636235        7.1690658414  W2        6506            0.0000000000
     19519      6507  TIP3      OH2            27.6021212922       20.0006236235        5.3042958414  W2        6507            0.0000000000
     19520      6507  TIP3      H1             28.3139612922       19.3608436235        5.2902058414  W2        6507            0.0000000000
     19521      6507  TIP3      H2             27.5011612922       20.2674536235        4.3906058414  W2        6507            0.0000000000
     19522      6508  TIP3      OH2            27.9558712922       21.6834636235        7.3579258414  W2        6508            0.0000000000
     19523      6508  TIP3      H1             27.8240912922       21.2078436235        6.5377758414  W2        6508            0.0000000000
     19524      6508  TIP3      H2             27.3566112922       22.4278236235        7.3026358414  W2        6508            0.0000000000
     19525      6509  TIP3      OH2            21.0705912922       33.2028736235       -9.9828641586  W2        6509            0.0000000000
     19526      6509  TIP3      H1             21.9845112922       33.2817636235       -9.7094741586  W2        6509            0.0000000000
     19527      6509  TIP3      H2             21.0779012922       32.5158336235      -10.6493041586  W2        6509            0.0000000000
     19528      6510  TIP3      OH2            20.5895712922       36.6764236235       -3.1008541586  W2        6510            0.0000000000
     19529      6510  TIP3      H1             20.2552512922       35.7961536235       -2.9288341586  W2        6510            0.0000000000
     19530      6510  TIP3      H2             20.8118112922       37.0219236235       -2.2362941586  W2        6510            0.0000000000
     19531      6511  TIP3      OH2            36.1520712922       32.8429836235        7.4395658414  W2        6511            0.0000000000
     19532      6511  TIP3      H1             35.2861812922       32.7379536235        7.8337958414  W2        6511            0.0000000000
     19533      6511  TIP3      H2             36.5286612922       33.6013136235        7.8860358414  W2        6511            0.0000000000
     19534      6512  TIP3      OH2            36.0929512922       34.8155936235        2.0319858414  W2        6512            0.0000000000
     19535      6512  TIP3      H1             35.4454812922       35.1407436235        2.6575058414  W2        6512            0.0000000000
     19536      6512  TIP3      H2             35.5753512922       34.3753636235        1.3578158414  W2        6512            0.0000000000
     19537      6513  TIP3      OH2            36.4648112922       26.2935036235      -10.2807741586  W2        6513            0.0000000000
     19538      6513  TIP3      H1             36.5612512922       26.9602036235      -10.9608041586  W2        6513            0.0000000000
     19539      6513  TIP3      H2             36.3247712922       25.4781336235      -10.7622241586  W2        6513            0.0000000000
     19540      6514  TIP3      OH2            35.6342812922       27.6737436235       -4.6597441586  W2        6514            0.0000000000
     19541      6514  TIP3      H1             35.4841612922       26.7286036235       -4.6799641586  W2        6514            0.0000000000
     19542      6514  TIP3      H2             35.2807312922       27.9548836235       -3.8158341586  W2        6514            0.0000000000
     19543      6515  TIP3      OH2            20.6695212922       29.7519636235       -0.6493641586  W2        6515            0.0000000000
     19544      6515  TIP3      H1             20.8538112922       29.6701336235       -1.5850741586  W2        6515            0.0000000000
     19545      6515  TIP3      H2             21.5188112922       29.6276636235       -0.2257241586  W2        6515            0.0000000000
     19546      6516  TIP3      OH2            36.4905712922       29.6440736235        4.9790858414  W2        6516            0.0000000000
     19547      6516  TIP3      H1             37.0733012922       28.9093036235        5.1708058414  W2        6516            0.0000000000
     19548      6516  TIP3      H2             37.0545012922       30.4161036235        5.0256658414  W2        6516            0.0000000000
     19549      6517  TIP3      OH2            35.7121912922       23.7014836235      -11.1632241586  W2        6517            0.0000000000
     19550      6517  TIP3      H1             36.3227712922       23.3301636235      -10.5264041586  W2        6517            0.0000000000
     19551      6517  TIP3      H2             34.8753412922       23.2801736235      -10.9672241586  W2        6517            0.0000000000
     19552      6518  TIP3      OH2            35.3447612922       25.2563236235       -6.1972341586  W2        6518            0.0000000000
     19553      6518  TIP3      H1             35.6244712922       24.3493636235       -6.0730641586  W2        6518            0.0000000000
     19554      6518  TIP3      H2             36.1039312922       25.6904736235       -6.5863141586  W2        6518            0.0000000000
     19555      6519  TIP3      OH2            35.9565912922       25.8380636235       -0.7613441586  W2        6519            0.0000000000
     19556      6519  TIP3      H1             36.8893912922       26.0500536235       -0.7957441586  W2        6519            0.0000000000
     19557      6519  TIP3      H2             35.7213412922       25.9392736235        0.1609558414  W2        6519            0.0000000000
     19558      6520  TIP3      OH2            35.9857812922       26.5745936235        2.0145958414  W2        6520            0.0000000000
     19559      6520  TIP3      H1             35.1429112922       26.8426336235        2.3805758414  W2        6520            0.0000000000
     19560      6520  TIP3      H2             36.4282112922       27.3967836235        1.8037058414  W2        6520            0.0000000000
     19561      6521  TIP3      OH2            20.2670012922       25.0224636235        5.4915158414  W2        6521            0.0000000000
     19562      6521  TIP3      H1             21.1864912922       24.9002936235        5.7278258414  W2        6521            0.0000000000
     19563      6521  TIP3      H2             19.8174512922       24.2724336235        5.8808658414  W2        6521            0.0000000000
     19564      6522  TIP3      OH2            35.9582412922       22.5192536235       -6.1490341586  W2        6522            0.0000000000
     19565      6522  TIP3      H1             36.1407412922       22.0704036235       -5.3235341586  W2        6522            0.0000000000
     19566      6522  TIP3      H2             35.3585312922       21.9346936235       -6.6125741586  W2        6522            0.0000000000
     19567      6523  TIP3      OH2            21.4882512922       23.3346236235       -1.6171941586  W2        6523            0.0000000000
     19568      6523  TIP3      H1             21.9334112922       22.5428736235       -1.3152241586  W2        6523            0.0000000000
     19569      6523  TIP3      H2             21.9545512922       24.0511436235       -1.1866341586  W2        6523            0.0000000000
     19570      6524  TIP3      OH2            19.7922812922       26.3339236235       -0.5481741586  W2        6524            0.0000000000
     19571      6524  TIP3      H1             20.2842612922       26.1129736235       -1.3389741586  W2        6524            0.0000000000
     19572      6524  TIP3      H2             20.1543712922       27.1742636235       -0.2672241586  W2        6524            0.0000000000
     19573      6525  TIP3      OH2            20.1059312922       22.5918336235       -6.4939341586  W2        6525            0.0000000000
     19574      6525  TIP3      H1             19.1807712922       22.8004936235       -6.6233841586  W2        6525            0.0000000000
     19575      6525  TIP3      H2             20.5599212922       23.0759136235       -7.1837041586  W2        6525            0.0000000000
     19576      6526  TIP3      OH2            20.0694712922       21.3297336235        1.8503158414  W2        6526            0.0000000000
     19577      6526  TIP3      H1             19.4045212922       21.0837636235        2.4934058414  W2        6526            0.0000000000
     19578      6526  TIP3      H2             19.6266012922       21.9517736235        1.2731158414  W2        6526            0.0000000000
     19579      6527  TIP3      OH2            22.2614012922       34.5051436235        5.9948958414  W2        6527            0.0000000000
     19580      6527  TIP3      H1             21.4406512922       34.6797936235        5.5343658414  W2        6527            0.0000000000
     19581      6527  TIP3      H2             22.0091812922       34.4316136235        6.9153358414  W2        6527            0.0000000000
     19582      6528  TIP3      OH2            25.2156912922       35.4792636235        2.2532958414  W2        6528            0.0000000000
     19583      6528  TIP3      H1             24.7908012922       36.2891136235        1.9707558414  W2        6528            0.0000000000
     19584      6528  TIP3      H2             26.1199712922       35.5646736235        1.9512758414  W2        6528            0.0000000000
     19585      6529  TIP3      OH2            24.1734812922       36.0687736235       -2.1340041586  W2        6529            0.0000000000
     19586      6529  TIP3      H1             23.9545512922       35.1525136235       -1.9644041586  W2        6529            0.0000000000
     19587      6529  TIP3      H2             24.9977012922       36.2088136235       -1.6678641586  W2        6529            0.0000000000
     19588      6530  TIP3      OH2            26.7107312922       36.5387036235       -1.2852041586  W2        6530            0.0000000000
     19589      6530  TIP3      H1             26.9233012922       35.6506036235       -1.5721141586  W2        6530            0.0000000000
     19590      6530  TIP3      H2             26.7752412922       36.5044736235       -0.3308041586  W2        6530            0.0000000000
     19591      6531  TIP3      OH2            30.2191012922       22.2027636235       -2.1408741586  W2        6531            0.0000000000
     19592      6531  TIP3      H1             29.5447812922       21.5733236235       -1.8852941586  W2        6531            0.0000000000
     19593      6531  TIP3      H2             30.7830212922       21.7186536235       -2.7440841586  W2        6531            0.0000000000
     19594      6532  TIP3      OH2            35.3618212922       20.3101636235       -2.0281641586  W2        6532            0.0000000000
     19595      6532  TIP3      H1             35.9655812922       20.8577036235       -2.5300641586  W2        6532            0.0000000000
     19596      6532  TIP3      H2             34.4920212922       20.6292036235       -2.2687541586  W2        6532            0.0000000000
     19597      6533  TIP3      OH2            22.5458512922       20.8367936235       -4.3188841586  W2        6533            0.0000000000
     19598      6533  TIP3      H1             21.7688312922       20.6022836235       -4.8262941586  W2        6533            0.0000000000
     19599      6533  TIP3      H2             23.0762112922       20.0400036235       -4.3100841586  W2        6533            0.0000000000
     19600      6534  TIP3      OH2            21.3821912922       20.6346036235       -8.5152741586  W2        6534            0.0000000000
     19601      6534  TIP3      H1             21.8212612922       21.2456536235       -9.1069241586  W2        6534            0.0000000000
     19602      6534  TIP3      H2             20.7484312922       21.1730136235       -8.0412741586  W2        6534            0.0000000000
     19603      6535  TIP3      OH2            27.1251112922       20.7635036235       -4.5055741586  W2        6535            0.0000000000
     19604      6535  TIP3      H1             27.9994512922       21.1519336235       -4.5351441586  W2        6535            0.0000000000
     19605      6535  TIP3      H2             26.9891912922       20.5482836235       -3.5828541586  W2        6535            0.0000000000
     19606      6536  TIP3      OH2            32.6819512922       20.7934836235       -2.8564041586  W2        6536            0.0000000000
     19607      6536  TIP3      H1             32.7581112922       20.8886436235       -3.8058041586  W2        6536            0.0000000000
     19608      6536  TIP3      H2             32.4068712922       19.8857736235       -2.7274941586  W2        6536            0.0000000000
     19609      6537  TIP3      OH2            34.0352112922       20.8192636235       -7.1639041586  W2        6537            0.0000000000
     19610      6537  TIP3      H1             33.3323212922       21.4341836235       -7.3737641586  W2        6537            0.0000000000
     19611      6537  TIP3      H2             33.5903512922       19.9819336235       -7.0328141586  W2        6537            0.0000000000
     19612      6538  TIP3      OH2            21.2831412922       36.5828236235       -7.6177641586  W2        6538            0.0000000000
     19613      6538  TIP3      H1             20.5981312922       36.5447136235       -8.2852541586  W2        6538            0.0000000000
     19614      6538  TIP3      H2             21.2868612922       37.4955836235       -7.3295541586  W2        6538            0.0000000000
     19615      6539  TIP3      OH2            23.2431012922       22.5507536235      -10.0728641586  W2        6539            0.0000000000
     19616      6539  TIP3      H1             23.7344412922       21.9209936235      -10.6003141586  W2        6539            0.0000000000
     19617      6539  TIP3      H2             23.8667312922       22.8466936235       -9.4097441586  W2        6539            0.0000000000
     19618      6540  TIP3      OH2            28.2691112922       22.8439036235       -7.6158141586  W2        6540            0.0000000000
     19619      6540  TIP3      H1             28.4472412922       22.1972236235       -6.9329541586  W2        6540            0.0000000000
     19620      6540  TIP3      H2             28.2157312922       23.6776736235       -7.1487041586  W2        6540            0.0000000000
     19621      6541  TIP3      OH2            22.5036512922       21.3509836235        5.1987358414  W2        6541            0.0000000000
     19622      6541  TIP3      H1             22.1374712922       20.5852436235        5.6412058414  W2        6541            0.0000000000
     19623      6541  TIP3      H2             23.4165012922       21.3800036235        5.4852458414  W2        6541            0.0000000000
     19624      6542  TIP3      OH2            24.4767312922       20.7014236235        6.7344458414  W2        6542            0.0000000000
     19625      6542  TIP3      H1             25.3750912922       20.4274436235        6.5497858414  W2        6542            0.0000000000
     19626      6542  TIP3      H2             24.0900412922       19.9590236235        7.1987058414  W2        6542            0.0000000000
     19627      6543  TIP3      OH2            32.8979612922       20.0339536235        6.9167258414  W2        6543            0.0000000000
     19628      6543  TIP3      H1             32.9746812922       19.6080236235        7.7704958414  W2        6543            0.0000000000
     19629      6543  TIP3      H2             33.7916212922       20.0474236235        6.5740758414  W2        6543            0.0000000000
     19630      6544  TIP3      OH2            36.0740712922       36.1065836235        5.6091458414  W2        6544            0.0000000000
     19631      6544  TIP3      H1             35.2922612922       35.9203836235        5.0892058414  W2        6544            0.0000000000
     19632      6544  TIP3      H2             36.0020612922       37.0360136235        5.8263958414  W2        6544            0.0000000000
     19633      6545  TIP3      OH2           -24.9438887078      -26.5749763765       14.4958658414  W2        6545            0.0000000000
     19634      6545  TIP3      H1            -24.8547787078      -25.6311563765       14.3635758414  W2        6545            0.0000000000
     19635      6545  TIP3      H2            -25.5821287078      -26.8503363765       13.8378058414  W2        6545            0.0000000000
     19636      6546  TIP3      OH2           -26.0107587078      -27.3199063765       17.9146858414  W2        6546            0.0000000000
     19637      6546  TIP3      H1            -26.0490087078      -27.9662763765       18.6196458414  W2        6546            0.0000000000
     19638      6546  TIP3      H2            -26.3331087078      -27.7864663765       17.1435558414  W2        6546            0.0000000000
     19639      6547  TIP3      OH2           -33.6422587078      -27.7056963765       19.5076758414  W2        6547            0.0000000000
     19640      6547  TIP3      H1            -33.6010487078      -28.3313663765       20.2309158414  W2        6547            0.0000000000
     19641      6547  TIP3      H2            -32.9394887078      -27.0818363765       19.6897158414  W2        6547            0.0000000000
     19642      6548  TIP3      OH2           -22.3047387078      -24.3808663765       16.2161958414  W2        6548            0.0000000000
     19643      6548  TIP3      H1            -22.7454687078      -25.1012663765       16.6667558414  W2        6548            0.0000000000
     19644      6548  TIP3      H2            -22.3177687078      -23.6601463765       16.8459658414  W2        6548            0.0000000000
     19645      6549  TIP3      OH2           -32.7189487078      -23.2558063765       18.0425858414  W2        6549            0.0000000000
     19646      6549  TIP3      H1            -33.0884287078      -24.0577563765       17.6730158414  W2        6549            0.0000000000
     19647      6549  TIP3      H2            -31.7778387078      -23.4243163765       18.0889258414  W2        6549            0.0000000000
     19648      6550  TIP3      OH2           -36.1088987078      -29.5955463765       13.4354658414  W2        6550            0.0000000000
     19649      6550  TIP3      H1            -36.5565587078      -28.7496763765       13.4171158414  W2        6550            0.0000000000
     19650      6550  TIP3      H2            -36.6697787078      -30.1751263765       12.9199758414  W2        6550            0.0000000000
     19651      6551  TIP3      OH2           -35.3982887078      -27.4335863765       15.5612658414  W2        6551            0.0000000000
     19652      6551  TIP3      H1            -35.1849387078      -28.2034263765       16.0885658414  W2        6551            0.0000000000
     19653      6551  TIP3      H2            -34.6605287078      -27.3439163765       14.9580258414  W2        6551            0.0000000000
     19654      6552  TIP3      OH2           -25.1931887078      -19.2766963765       16.4282358414  W2        6552            0.0000000000
     19655      6552  TIP3      H1            -24.5735487078      -19.9532263765       16.1551558414  W2        6552            0.0000000000
     19656      6552  TIP3      H2            -25.4014487078      -19.4946163765       17.3367258414  W2        6552            0.0000000000
     19657      6553  TIP3      OH2           -27.6213187078      -24.8877663765       18.3207858414  W2        6553            0.0000000000
     19658      6553  TIP3      H1            -27.3175287078      -25.5736263765       17.7261958414  W2        6553            0.0000000000
     19659      6553  TIP3      H2            -26.8999187078      -24.7688963765       18.9385858414  W2        6553            0.0000000000
     19660      6554  TIP3      OH2           -18.9583387078      -33.2862363765       19.1814058414  W2        6554            0.0000000000
     19661      6554  TIP3      H1            -18.9091187078      -32.6761163765       19.9173158414  W2        6554            0.0000000000
     19662      6554  TIP3      H2            -18.5328287078      -32.8251463765       18.4585158414  W2        6554            0.0000000000
     19663      6555  TIP3      OH2           -24.4806187078      -30.4935263765       18.6482658414  W2        6555            0.0000000000
     19664      6555  TIP3      H1            -24.3380287078      -31.4398263765       18.6684258414  W2        6555            0.0000000000
     19665      6555  TIP3      H2            -24.5867187078      -30.2865463765       17.7197558414  W2        6555            0.0000000000
     19666      6556  TIP3      OH2           -31.3257887078      -32.3918863765       15.9207458414  W2        6556            0.0000000000
     19667      6556  TIP3      H1            -31.2826787078      -31.5320363765       15.5023758414  W2        6556            0.0000000000
     19668      6556  TIP3      H2            -31.7833787078      -32.9444163765       15.2870658414  W2        6556            0.0000000000
     19669      6557  TIP3      OH2           -23.6035187078      -32.2613263765       14.3215758414  W2        6557            0.0000000000
     19670      6557  TIP3      H1            -22.9570887078      -32.5900063765       14.9463358414  W2        6557            0.0000000000
     19671      6557  TIP3      H2            -23.0935787078      -31.7434263765       13.6987158414  W2        6557            0.0000000000
     19672      6558  TIP3      OH2           -34.7056387078      -29.9953063765       16.6828858414  W2        6558            0.0000000000
     19673      6558  TIP3      H1            -34.0519787078      -30.5451363765       17.1148958414  W2        6558            0.0000000000
     19674      6558  TIP3      H2            -34.6817087078      -30.2694063765       15.7660858414  W2        6558            0.0000000000
     19675      6559  TIP3      OH2           -29.5491887078      -28.4451763765       15.8980358414  W2        6559            0.0000000000
     19676      6559  TIP3      H1            -28.9330887078      -28.9716363765       16.4074358414  W2        6559            0.0000000000
     19677      6559  TIP3      H2            -30.1353087078      -29.0853063765       15.4943958414  W2        6559            0.0000000000
     19678      6560  TIP3      OH2           -18.5668787078      -31.8083163765       21.4173858414  W2        6560            0.0000000000
     19679      6560  TIP3      H1            -19.2554187078      -31.1502463765       21.3220458414  W2        6560            0.0000000000
     19680      6560  TIP3      H2            -18.5514187078      -32.0055263765       22.3539258414  W2        6560            0.0000000000
     19681      6561  TIP3      OH2           -32.5155987078      -33.4740463765       19.9948258414  W2        6561            0.0000000000
     19682      6561  TIP3      H1            -32.7344287078      -32.9439863765       19.2284258414  W2        6561            0.0000000000
     19683      6561  TIP3      H2            -33.1835087078      -33.2474963765       20.6419658414  W2        6561            0.0000000000
     19684      6562  TIP3      OH2           -25.1466187078      -23.9739363765       13.5387358414  W2        6562            0.0000000000
     19685      6562  TIP3      H1            -25.4421087078      -24.2967063765       12.6874258414  W2        6562            0.0000000000
     19686      6562  TIP3      H2            -25.4708387078      -23.0742663765       13.5799958414  W2        6562            0.0000000000
     19687      6563  TIP3      OH2           -29.9464587078      -25.7984763765       20.2821958414  W2        6563            0.0000000000
     19688      6563  TIP3      H1            -30.6865487078      -25.2003263765       20.3857158414  W2        6563            0.0000000000
     19689      6563  TIP3      H2            -29.2325087078      -25.2445163765       19.9665558414  W2        6563            0.0000000000
     19690      6564  TIP3      OH2           -21.8396787078      -32.9703963765       16.3021658414  W2        6564            0.0000000000
     19691      6564  TIP3      H1            -22.0548787078      -33.7360563765       16.8347658414  W2        6564            0.0000000000
     19692      6564  TIP3      H2            -21.1839387078      -32.4979363765       16.8150158414  W2        6564            0.0000000000
     19693      6565  TIP3      OH2           -32.9218687078      -31.5818663765       17.9470458414  W2        6565            0.0000000000
     19694      6565  TIP3      H1            -32.3082387078      -30.9491063765       18.3202858414  W2        6565            0.0000000000
     19695      6565  TIP3      H2            -32.4097987078      -32.0543663765       17.2907358414  W2        6565            0.0000000000
     19696      6566  TIP3      OH2           -31.5390287078      -23.8341763765       21.0693458414  W2        6566            0.0000000000
     19697      6566  TIP3      H1            -31.5442687078      -22.9548263765       20.6912758414  W2        6566            0.0000000000
     19698      6566  TIP3      H2            -32.3926187078      -23.9177663765       21.4943358414  W2        6566            0.0000000000
     19699      6567  TIP3      OH2           -35.4179387078      -24.1633863765       11.8512758414  W2        6567            0.0000000000
     19700      6567  TIP3      H1            -35.6898487078      -23.9342863765       10.9625658414  W2        6567            0.0000000000
     19701      6567  TIP3      H2            -35.3723687078      -23.3255063765       12.3118058414  W2        6567            0.0000000000
     19702      6568  TIP3      OH2           -21.7929687078      -22.5417963765       18.5641258414  W2        6568            0.0000000000
     19703      6568  TIP3      H1            -22.7345987078      -22.4834063765       18.7258158414  W2        6568            0.0000000000
     19704      6568  TIP3      H2            -21.5163587078      -21.6357463765       18.4270958414  W2        6568            0.0000000000
     19705      6569  TIP3      OH2           -21.4922687078      -34.2552663765       19.9815158414  W2        6569            0.0000000000
     19706      6569  TIP3      H1            -22.2283487078      -33.6445563765       19.9436458414  W2        6569            0.0000000000
     19707      6569  TIP3      H2            -20.8088687078      -33.8403663765       19.4551558414  W2        6569            0.0000000000
     19708      6570  TIP3      OH2           -28.4891287078      -36.1685363765       17.4473158414  W2        6570            0.0000000000
     19709      6570  TIP3      H1            -28.6067087078      -37.1169363765       17.3931458414  W2        6570            0.0000000000
     19710      6570  TIP3      H2            -29.3441187078      -35.8359263765       17.7204258414  W2        6570            0.0000000000
     19711      6571  TIP3      OH2           -23.5408487078      -20.7604463765       15.1892858414  W2        6571            0.0000000000
     19712      6571  TIP3      H1            -23.1156187078      -21.4676563765       14.7042458414  W2        6571            0.0000000000
     19713      6571  TIP3      H2            -23.2238487078      -19.9591763765       14.7725058414  W2        6571            0.0000000000
     19714      6572  TIP3      OH2           -22.3811987078      -22.8595963765       13.6979458414  W2        6572            0.0000000000
     19715      6572  TIP3      H1            -22.6387187078      -23.5495863765       13.0865358414  W2        6572            0.0000000000
     19716      6572  TIP3      H2            -22.3101187078      -23.3024763765       14.5435358414  W2        6572            0.0000000000
     19717      6573  TIP3      OH2           -20.6951787078      -24.2929263765       22.1752958414  W2        6573            0.0000000000
     19718      6573  TIP3      H1            -20.5555487078      -24.8846763765       21.4359958414  W2        6573            0.0000000000
     19719      6573  TIP3      H2            -20.5278987078      -23.4203363765       21.8191758414  W2        6573            0.0000000000
     19720      6574  TIP3      OH2           -26.2226387078      -27.3309763765       11.9478958414  W2        6574            0.0000000000
     19721      6574  TIP3      H1            -26.9340887078      -26.7960063765       11.5959458414  W2        6574            0.0000000000
     19722      6574  TIP3      H2            -25.5316787078      -27.2757663765       11.2877858414  W2        6574            0.0000000000
     19723      6575  TIP3      OH2           -26.1687187078      -28.8735463765        8.9863958414  W2        6575            0.0000000000
     19724      6575  TIP3      H1            -25.4677287078      -28.8508563765        9.6377958414  W2        6575            0.0000000000
     19725      6575  TIP3      H2            -25.8664287078      -29.5015763765        8.3303258414  W2        6575            0.0000000000
     19726      6576  TIP3      OH2           -18.8532487078      -27.9531263765       20.2413358414  W2        6576            0.0000000000
     19727      6576  TIP3      H1            -19.5058387078      -27.2585663765       20.3304258414  W2        6576            0.0000000000
     19728      6576  TIP3      H2            -18.3882187078      -27.7430363765       19.4314958414  W2        6576            0.0000000000
     19729      6577  TIP3      OH2           -22.8168687078      -27.1216463765       12.8994858414  W2        6577            0.0000000000
     19730      6577  TIP3      H1            -23.5487687078      -26.8932763765       13.4725458414  W2        6577            0.0000000000
     19731      6577  TIP3      H2            -22.3696487078      -27.8353763765       13.3542358414  W2        6577            0.0000000000
     19732      6578  TIP3      OH2           -22.9195187078      -28.9473863765       21.9671858414  W2        6578            0.0000000000
     19733      6578  TIP3      H1            -22.8396087078      -28.1839463765       22.5390358414  W2        6578            0.0000000000
     19734      6578  TIP3      H2            -23.5207487078      -28.6681463765       21.2766958414  W2        6578            0.0000000000
     19735      6579  TIP3      OH2           -31.1714987078      -26.4910263765       14.7819858414  W2        6579            0.0000000000
     19736      6579  TIP3      H1            -31.5019787078      -26.8616863765       13.9636858414  W2        6579            0.0000000000
     19737      6579  TIP3      H2            -30.5830887078      -27.1616263765       15.1288158414  W2        6579            0.0000000000
     19738      6580  TIP3      OH2           -29.8047487078      -23.0629663765       17.4632058414  W2        6580            0.0000000000
     19739      6580  TIP3      H1            -29.8996187078      -23.6416563765       16.7066658414  W2        6580            0.0000000000
     19740      6580  TIP3      H2            -29.0753887078      -23.4343963765       17.9594858414  W2        6580            0.0000000000
     19741      6581  TIP3      OH2           -30.8049487078      -27.7224663765       18.4154858414  W2        6581            0.0000000000
     19742      6581  TIP3      H1            -30.2396987078      -27.6010463765       17.6526058414  W2        6581            0.0000000000
     19743      6581  TIP3      H2            -30.4860587078      -27.0849663765       19.0543358414  W2        6581            0.0000000000
     19744      6582  TIP3      OH2           -24.4957287078      -22.2192763765       19.1495358414  W2        6582            0.0000000000
     19745      6582  TIP3      H1            -24.7360687078      -21.5569663765       19.7974558414  W2        6582            0.0000000000
     19746      6582  TIP3      H2            -24.6939087078      -23.0537563765       19.5744958414  W2        6582            0.0000000000
     19747      6583  TIP3      OH2           -29.9248787078      -23.3231963765       23.1326758414  W2        6583            0.0000000000
     19748      6583  TIP3      H1            -30.2361287078      -22.5408763765       23.5879958414  W2        6583            0.0000000000
     19749      6583  TIP3      H2            -30.5748587078      -23.4762863765       22.4468758414  W2        6583            0.0000000000
     19750      6584  TIP3      OH2           -23.9459187078      -27.9593563765       10.5846058414  W2        6584            0.0000000000
     19751      6584  TIP3      H1            -23.3663687078      -27.8093263765       11.3314958414  W2        6584            0.0000000000
     19752      6584  TIP3      H2            -23.5319187078      -27.4886163765        9.8612458414  W2        6584            0.0000000000
     19753      6585  TIP3      OH2           -33.0048887078      -27.1250863765       22.3612458414  W2        6585            0.0000000000
     19754      6585  TIP3      H1            -32.9345687078      -26.4744063765       23.0597458414  W2        6585            0.0000000000
     19755      6585  TIP3      H2            -33.8956687078      -27.0223363765       22.0263358414  W2        6585            0.0000000000
     19756      6586  TIP3      OH2           -26.2194287078      -21.2225063765       14.0199158414  W2        6586            0.0000000000
     19757      6586  TIP3      H1            -25.7456687078      -20.9268763765       14.7973358414  W2        6586            0.0000000000
     19758      6586  TIP3      H2            -26.7824987078      -20.4843463765       13.7868758414  W2        6586            0.0000000000
     19759      6587  TIP3      OH2           -31.6852887078      -21.2516963765       23.8960558414  W2        6587            0.0000000000
     19760      6587  TIP3      H1            -31.6777587078      -21.3877263765       22.9486058414  W2        6587            0.0000000000
     19761      6587  TIP3      H2            -32.6012487078      -21.3688863765       24.1480558414  W2        6587            0.0000000000
     19762      6588  TIP3      OH2           -20.2470787078      -36.2093163765       10.3975758414  W2        6588            0.0000000000
     19763      6588  TIP3      H1            -21.1470087078      -36.0704163765       10.6926358414  W2        6588            0.0000000000
     19764      6588  TIP3      H2            -19.9952387078      -35.3778563765        9.9957458414  W2        6588            0.0000000000
     19765      6589  TIP3      OH2           -32.1812287078      -27.4215963765       12.3712658414  W2        6589            0.0000000000
     19766      6589  TIP3      H1            -32.4730987078      -26.6534263765       11.8803958414  W2        6589            0.0000000000
     19767      6589  TIP3      H2            -32.8557087078      -28.0809763765       12.2084058414  W2        6589            0.0000000000
     19768      6590  TIP3      OH2           -19.0579387078      -21.8430763765        8.7739658414  W2        6590            0.0000000000
     19769      6590  TIP3      H1            -18.9845887078      -20.9040563765        8.9444958414  W2        6590            0.0000000000
     19770      6590  TIP3      H2            -18.1524287078      -22.1482163765        8.7176958414  W2        6590            0.0000000000
     19771      6591  TIP3      OH2           -36.0882187078      -25.0586763765       21.1862458414  W2        6591            0.0000000000
     19772      6591  TIP3      H1            -36.5893787078      -25.0867363765       20.3712158414  W2        6591            0.0000000000
     19773      6591  TIP3      H2            -36.0828487078      -25.9643563765       21.4959758414  W2        6591            0.0000000000
     19774      6592  TIP3      OH2           -36.3379487078      -22.2782963765       18.0702658414  W2        6592            0.0000000000
     19775      6592  TIP3      H1            -35.3918887078      -22.4225963765       18.0512158414  W2        6592            0.0000000000
     19776      6592  TIP3      H2            -36.4503187078      -21.4940163765       18.6073858414  W2        6592            0.0000000000
     19777      6593  TIP3      OH2           -18.1400987078      -21.6123263765       23.7526358414  W2        6593            0.0000000000
     19778      6593  TIP3      H1            -18.1894187078      -22.5675163765       23.7153958414  W2        6593            0.0000000000
     19779      6593  TIP3      H2            -18.9668687078      -21.3447963765       24.1540158414  W2        6593            0.0000000000
     19780      6594  TIP3      OH2           -27.1616987078      -22.0384063765       22.6287758414  W2        6594            0.0000000000
     19781      6594  TIP3      H1            -27.0742387078      -21.2119463765       23.1036858414  W2        6594            0.0000000000
     19782      6594  TIP3      H2            -28.0251887078      -22.3680263765       22.8777058414  W2        6594            0.0000000000
     19783      6595  TIP3      OH2           -26.7471187078      -18.2660363765       12.4348358414  W2        6595            0.0000000000
     19784      6595  TIP3      H1            -26.8225187078      -18.3873163765       11.4883558414  W2        6595            0.0000000000
     19785      6595  TIP3      H2            -26.7142487078      -17.3167663765       12.5532958414  W2        6595            0.0000000000
     19786      6596  TIP3      OH2           -33.0937387078      -19.4773363765       14.2157358414  W2        6596            0.0000000000
     19787      6596  TIP3      H1            -32.9416987078      -19.8252963765       15.0943858414  W2        6596            0.0000000000
     19788      6596  TIP3      H2            -33.9446987078      -19.8336063765       13.9604558414  W2        6596            0.0000000000
     19789      6597  TIP3      OH2           -23.6455187078      -19.1120163765        9.4370758414  W2        6597            0.0000000000
     19790      6597  TIP3      H1            -23.2706787078      -19.8564063765        8.9663358414  W2        6597            0.0000000000
     19791      6597  TIP3      H2            -23.6411487078      -19.3819563765       10.3554058414  W2        6597            0.0000000000
     19792      6598  TIP3      OH2           -23.9767087078      -19.1863063765       12.1862958414  W2        6598            0.0000000000
     19793      6598  TIP3      H1            -24.9117287078      -19.0861163765       12.3649958414  W2        6598            0.0000000000
     19794      6598  TIP3      H2            -23.6965187078      -19.8957063765       12.7646158414  W2        6598            0.0000000000
     19795      6599  TIP3      OH2           -20.9881187078      -30.1190763765       24.2328558414  W2        6599            0.0000000000
     19796      6599  TIP3      H1            -21.3954387078      -29.6385163765       23.5121858414  W2        6599            0.0000000000
     19797      6599  TIP3      H2            -20.9475487078      -31.0244763765       23.9249358414  W2        6599            0.0000000000
     19798      6600  TIP3      OH2           -33.8391687078      -23.7351363765       22.2295258414  W2        6600            0.0000000000
     19799      6600  TIP3      H1            -33.6230387078      -24.0965763765       23.0891058414  W2        6600            0.0000000000
     19800      6600  TIP3      H2            -34.6946987078      -24.1097563765       22.0198758414  W2        6600            0.0000000000
     19801      6601  TIP3      OH2           -31.2203687078      -35.2650863765       18.2249458414  W2        6601            0.0000000000
     19802      6601  TIP3      H1            -32.0819987078      -35.3522663765       17.8172358414  W2        6601            0.0000000000
     19803      6601  TIP3      H2            -31.2427987078      -34.4090763765       18.6527058414  W2        6601            0.0000000000
     19804      6602  TIP3      OH2           -26.5575887078      -35.5430463765       21.5996458414  W2        6602            0.0000000000
     19805      6602  TIP3      H1            -26.1372787078      -35.9583363765       22.3527058414  W2        6602            0.0000000000
     19806      6602  TIP3      H2            -27.4906287078      -35.7217163765       21.7168458414  W2        6602            0.0000000000
     19807      6603  TIP3      OH2           -23.2310987078      -31.7875263765       22.4530958414  W2        6603            0.0000000000
     19808      6603  TIP3      H1            -23.7451487078      -31.9133063765       23.2506958414  W2        6603            0.0000000000
     19809      6603  TIP3      H2            -23.3866287078      -30.8752163765       22.2087158414  W2        6603            0.0000000000
     19810      6604  TIP3      OH2           -22.4686087078      -26.9265263765        8.2143958414  W2        6604            0.0000000000
     19811      6604  TIP3      H1            -22.4265287078      -27.1491363765        7.2843958414  W2        6604            0.0000000000
     19812      6604  TIP3      H2            -21.6193987078      -26.5278163765        8.4043858414  W2        6604            0.0000000000
     19813      6605  TIP3      OH2           -26.8958587078      -33.0507063765        8.8847258414  W2        6605            0.0000000000
     19814      6605  TIP3      H1            -27.1493787078      -33.0315463765        9.8075358414  W2        6605            0.0000000000
     19815      6605  TIP3      H2            -27.1526487078      -33.9221663765        8.5833458414  W2        6605            0.0000000000
     19816      6606  TIP3      OH2           -31.1293587078      -30.2996363765       19.3199658414  W2        6606            0.0000000000
     19817      6606  TIP3      H1            -31.7711487078      -30.3399063765       20.0289758414  W2        6606            0.0000000000
     19818      6606  TIP3      H2            -31.0921587078      -29.3731663765       19.0822658414  W2        6606            0.0000000000
     19819      6607  TIP3      OH2           -31.1324487078      -30.0786263765       14.2319658414  W2        6607            0.0000000000
     19820      6607  TIP3      H1            -32.0251587078      -30.4190163765       14.1733458414  W2        6607            0.0000000000
     19821      6607  TIP3      H2            -30.6817887078      -30.4555363765       13.4762858414  W2        6607            0.0000000000
     19822      6608  TIP3      OH2           -25.5968987078      -29.6625963765       13.0490458414  W2        6608            0.0000000000
     19823      6608  TIP3      H1            -26.0058687078      -28.8477363765       12.7575258414  W2        6608            0.0000000000
     19824      6608  TIP3      H2            -24.8762787078      -29.8025863765       12.4347558414  W2        6608            0.0000000000
     19825      6609  TIP3      OH2           -26.4947387078      -29.4869563765       24.5371158414  W2        6609            0.0000000000
     19826      6609  TIP3      H1            -27.0573587078      -30.1917963765       24.8578958414  W2        6609            0.0000000000
     19827      6609  TIP3      H2            -25.6683987078      -29.6077663765       25.0048758414  W2        6609            0.0000000000
     19828      6610  TIP3      OH2           -24.5921287078      -30.2165563765       15.8630158414  W2        6610            0.0000000000
     19829      6610  TIP3      H1            -24.7876787078      -29.6108763765       15.1480758414  W2        6610            0.0000000000
     19830      6610  TIP3      H2            -24.4108687078      -31.0500363765       15.4286458414  W2        6610            0.0000000000
     19831      6611  TIP3      OH2           -33.3793087078      -29.9792863765       21.1871658414  W2        6611            0.0000000000
     19832      6611  TIP3      H1            -33.4173687078      -29.5791263765       22.0558758414  W2        6611            0.0000000000
     19833      6611  TIP3      H2            -33.8701987078      -30.7960463765       21.2774558414  W2        6611            0.0000000000
     19834      6612  TIP3      OH2           -30.0135687078      -32.6050563765        7.9857658414  W2        6612            0.0000000000
     19835      6612  TIP3      H1            -30.4444987078      -33.0500463765        8.7155058414  W2        6612            0.0000000000
     19836      6612  TIP3      H2            -30.7316987078      -32.2334263765        7.4735158414  W2        6612            0.0000000000
     19837      6613  TIP3      OH2           -36.7712287078      -32.8631063765       15.0376358414  W2        6613            0.0000000000
     19838      6613  TIP3      H1            -36.1404587078      -32.8918963765       15.7570258414  W2        6613            0.0000000000
     19839      6613  TIP3      H2            -36.3217987078      -33.2882363765       14.3072258414  W2        6613            0.0000000000
     19840      6614  TIP3      OH2           -35.4970187078      -32.1169063765       10.4616758414  W2        6614            0.0000000000
     19841      6614  TIP3      H1            -35.0228487078      -31.5259163765        9.8767658414  W2        6614            0.0000000000
     19842      6614  TIP3      H2            -36.2143787078      -31.5866163765       10.8086858414  W2        6614            0.0000000000
     19843      6615  TIP3      OH2           -25.3282087078      -28.5784263765       20.5342558414  W2        6615            0.0000000000
     19844      6615  TIP3      H1            -25.0047287078      -29.2094563765       19.8913058414  W2        6615            0.0000000000
     19845      6615  TIP3      H2            -25.7682787078      -29.1132063765       21.1949958414  W2        6615            0.0000000000
     19846      6616  TIP3      OH2           -28.5509187078      -32.6508763765       15.3183758414  W2        6616            0.0000000000
     19847      6616  TIP3      H1            -29.4618087078      -32.5941963765       15.6069758414  W2        6616            0.0000000000
     19848      6616  TIP3      H2            -28.0456287078      -32.7113263765       16.1290958414  W2        6616            0.0000000000
     19849      6617  TIP3      OH2           -33.7225787078      -31.0222463765       14.1451358414  W2        6617            0.0000000000
     19850      6617  TIP3      H1            -34.6117787078      -30.9226963765       13.8050958414  W2        6617            0.0000000000
     19851      6617  TIP3      H2            -33.4260887078      -31.8639463765       13.7989258414  W2        6617            0.0000000000
     19852      6618  TIP3      OH2           -30.0693987078      -31.0219863765       11.8015958414  W2        6618            0.0000000000
     19853      6618  TIP3      H1            -29.1378487078      -30.8929863765       11.9799058414  W2        6618            0.0000000000
     19854      6618  TIP3      H2            -30.2843687078      -30.3525563765       11.1520658414  W2        6618            0.0000000000
     19855      6619  TIP3      OH2           -24.1457287078      -33.4162463765       18.5825558414  W2        6619            0.0000000000
     19856      6619  TIP3      H1            -24.8225687078      -33.2849363765       19.2465258414  W2        6619            0.0000000000
     19857      6619  TIP3      H2            -24.6312387078      -33.5712963765       17.7723258414  W2        6619            0.0000000000
     19858      6620  TIP3      OH2           -31.3953787078      -29.8277663765        9.3682058414  W2        6620            0.0000000000
     19859      6620  TIP3      H1            -31.9378687078      -30.2073863765        8.6769658414  W2        6620            0.0000000000
     19860      6620  TIP3      H2            -30.5618887078      -29.6332963765        8.9396158414  W2        6620            0.0000000000
     19861      6621  TIP3      OH2           -20.8582187078      -17.7447063765       24.8593158414  W2        6621            0.0000000000
     19862      6621  TIP3      H1            -20.6583487078      -17.3205163765       24.0248458414  W2        6621            0.0000000000
     19863      6621  TIP3      H2            -20.2028487078      -17.4008863765       25.4663558414  W2        6621            0.0000000000
     19864      6622  TIP3      OH2           -33.2602387078      -25.2705763765       24.4673658414  W2        6622            0.0000000000
     19865      6622  TIP3      H1            -32.5279987078      -25.0159863765       25.0288158414  W2        6622            0.0000000000
     19866      6622  TIP3      H2            -34.0403687078      -25.0660363765       24.9829058414  W2        6622            0.0000000000
     19867      6623  TIP3      OH2           -27.2309487078      -29.8635763765       17.2053358414  W2        6623            0.0000000000
     19868      6623  TIP3      H1            -26.6666087078      -30.4099163765       16.6582958414  W2        6623            0.0000000000
     19869      6623  TIP3      H2            -27.3786087078      -30.3853863765       17.9940958414  W2        6623            0.0000000000
     19870      6624  TIP3      OH2           -32.2289787078      -33.7269663765       13.6238158414  W2        6624            0.0000000000
     19871      6624  TIP3      H1            -32.5460287078      -34.6294363765       13.5883558414  W2        6624            0.0000000000
     19872      6624  TIP3      H2            -31.4475687078      -33.7252263765       13.0709758414  W2        6624            0.0000000000
     19873      6625  TIP3      OH2           -28.6043587078      -31.4749663765       19.6193758414  W2        6625            0.0000000000
     19874      6625  TIP3      H1            -29.4398287078      -31.0210163765       19.7296158414  W2        6625            0.0000000000
     19875      6625  TIP3      H2            -28.0802987078      -31.1991163765       20.3713658414  W2        6625            0.0000000000
     19876      6626  TIP3      OH2           -28.0600987078      -25.2621963765       11.3040158414  W2        6626            0.0000000000
     19877      6626  TIP3      H1            -28.8049987078      -25.7696663765       10.9818058414  W2        6626            0.0000000000
     19878      6626  TIP3      H2            -28.1943787078      -25.2133963765       12.2504958414  W2        6626            0.0000000000
     19879      6627  TIP3      OH2           -20.9102087078      -26.1293763765       20.0907758414  W2        6627            0.0000000000
     19880      6627  TIP3      H1            -20.2683287078      -25.6727463765       19.5469958414  W2        6627            0.0000000000
     19881      6627  TIP3      H2            -21.7405187078      -26.0161363765       19.6281858414  W2        6627            0.0000000000
     19882      6628  TIP3      OH2           -24.1624187078      -32.4482063765        9.5032758414  W2        6628            0.0000000000
     19883      6628  TIP3      H1            -25.1009987078      -32.3366463765        9.3521558414  W2        6628            0.0000000000
     19884      6628  TIP3      H2            -23.8652087078      -31.5915163765        9.8098458414  W2        6628            0.0000000000
     19885      6629  TIP3      OH2           -26.5408887078      -25.0778663765       22.5409258414  W2        6629            0.0000000000
     19886      6629  TIP3      H1            -26.8862787078      -25.4596263765       23.3478858414  W2        6629            0.0000000000
     19887      6629  TIP3      H2            -26.7408787078      -24.1445063765       22.6122158414  W2        6629            0.0000000000
     19888      6630  TIP3      OH2           -23.4440687078      -30.5809363765       11.1640158414  W2        6630            0.0000000000
     19889      6630  TIP3      H1            -22.5521687078      -30.7184363765       11.4831358414  W2        6630            0.0000000000
     19890      6630  TIP3      H2            -23.3877087078      -29.7903263765       10.6273658414  W2        6630            0.0000000000
     19891      6631  TIP3      OH2           -32.9352687078      -25.9671963765       17.0738058414  W2        6631            0.0000000000
     19892      6631  TIP3      H1            -32.1905487078      -25.9696263765       16.4724558414  W2        6631            0.0000000000
     19893      6631  TIP3      H2            -32.8576087078      -26.7908163765       17.5553158414  W2        6631            0.0000000000
     19894      6632  TIP3      OH2           -25.9346887078      -23.8037663765       10.3294758414  W2        6632            0.0000000000
     19895      6632  TIP3      H1            -26.2298487078      -22.9769763765       10.7109558414  W2        6632            0.0000000000
     19896      6632  TIP3      H2            -26.6376887078      -24.4230763765       10.5256158414  W2        6632            0.0000000000
     19897      6633  TIP3      OH2           -35.9272987078      -27.5065063765       22.3886558414  W2        6633            0.0000000000
     19898      6633  TIP3      H1            -35.7044387078      -27.9245463765       23.2204058414  W2        6633            0.0000000000
     19899      6633  TIP3      H2            -36.5292887078      -28.1190063765       21.9659358414  W2        6633            0.0000000000
     19900      6634  TIP3      OH2           -28.9108087078      -27.9895163765       24.6016258414  W2        6634            0.0000000000
     19901      6634  TIP3      H1            -29.2067287078      -28.1552163765       23.7065358414  W2        6634            0.0000000000
     19902      6634  TIP3      H2            -27.9792887078      -28.2094863765       24.5910158414  W2        6634            0.0000000000
     19903      6635  TIP3      OH2           -24.2905287078      -22.6163163765       22.4914258414  W2        6635            0.0000000000
     19904      6635  TIP3      H1            -25.1910987078      -22.4330563765       22.2238158414  W2        6635            0.0000000000
     19905      6635  TIP3      H2            -24.2564187078      -22.3573863765       23.4123058414  W2        6635            0.0000000000
     19906      6636  TIP3      OH2           -18.5591987078      -30.3715263765       10.8586858414  W2        6636            0.0000000000
     19907      6636  TIP3      H1            -19.1135687078      -30.7677263765       10.1864358414  W2        6636            0.0000000000
     19908      6636  TIP3      H2            -18.4588387078      -29.4610063765       10.5810158414  W2        6636            0.0000000000
     19909      6637  TIP3      OH2           -18.5959987078      -24.5713563765       23.6958358414  W2        6637            0.0000000000
     19910      6637  TIP3      H1            -19.4471487078      -24.3329763765       23.3284758414  W2        6637            0.0000000000
     19911      6637  TIP3      H2            -18.0056587078      -24.5880363765       22.9425458414  W2        6637            0.0000000000
     19912      6638  TIP3      OH2           -20.2640287078      -21.5854863765       11.3238958414  W2        6638            0.0000000000
     19913      6638  TIP3      H1            -20.6369187078      -22.4111063765       11.6329558414  W2        6638            0.0000000000
     19914      6638  TIP3      H2            -19.9866787078      -21.7685463765       10.4262358414  W2        6638            0.0000000000
     19915      6639  TIP3      OH2           -23.1036387078      -26.7775363765       18.3450858414  W2        6639            0.0000000000
     19916      6639  TIP3      H1            -24.0319487078      -27.0093463765       18.3180158414  W2        6639            0.0000000000
     19917      6639  TIP3      H2            -22.6525287078      -27.5545563765       18.0149658414  W2        6639            0.0000000000
     19918      6640  TIP3      OH2           -30.5603287078      -22.4493763765       14.4779558414  W2        6640            0.0000000000
     19919      6640  TIP3      H1            -30.0331087078      -21.6759363765       14.2778358414  W2        6640            0.0000000000
     19920      6640  TIP3      H2            -31.4404787078      -22.2244563765       14.1763558414  W2        6640            0.0000000000
     19921      6641  TIP3      OH2           -34.8055587078      -27.5869663765        9.0651958414  W2        6641            0.0000000000
     19922      6641  TIP3      H1            -34.1895687078      -26.9602463765        9.4446758414  W2        6641            0.0000000000
     19923      6641  TIP3      H2            -35.6672987078      -27.2709863765        9.3368458414  W2        6641            0.0000000000
     19924      6642  TIP3      OH2           -29.1330987078      -24.7863863765       14.0543858414  W2        6642            0.0000000000
     19925      6642  TIP3      H1            -29.3740987078      -23.8609463765       14.0959158414  W2        6642            0.0000000000
     19926      6642  TIP3      H2            -29.8737387078      -25.2452563765       14.4507758414  W2        6642            0.0000000000
     19927      6643  TIP3      OH2           -28.6184387078      -20.6370263765       20.3694958414  W2        6643            0.0000000000
     19928      6643  TIP3      H1            -28.2559687078      -19.7824663765       20.1359358414  W2        6643            0.0000000000
     19929      6643  TIP3      H2            -28.0869187078      -20.9288663765       21.1101258414  W2        6643            0.0000000000
     19930      6644  TIP3      OH2           -30.4500187078      -19.7646263765       13.5996058414  W2        6644            0.0000000000
     19931      6644  TIP3      H1            -31.3999687078      -19.6588863765       13.6509358414  W2        6644            0.0000000000
     19932      6644  TIP3      H2            -30.0982087078      -18.9438863765       13.9443558414  W2        6644            0.0000000000
     19933      6645  TIP3      OH2           -25.0743587078      -24.5379563765       20.0700558414  W2        6645            0.0000000000
     19934      6645  TIP3      H1            -25.5002287078      -24.7657863765       20.8964558414  W2        6645            0.0000000000
     19935      6645  TIP3      H2            -24.4937787078      -25.2767763765       19.8875858414  W2        6645            0.0000000000
     19936      6646  TIP3      OH2           -22.8714687078      -23.6089063765        9.1439558414  W2        6646            0.0000000000
     19937      6646  TIP3      H1            -22.5181587078      -23.9889263765        9.9483058414  W2        6646            0.0000000000
     19938      6646  TIP3      H2            -23.8201187078      -23.7024263765        9.2308858414  W2        6646            0.0000000000
     19939      6647  TIP3      OH2           -22.4159387078      -19.9860063765       22.5395358414  W2        6647            0.0000000000
     19940      6647  TIP3      H1            -23.0176187078      -20.5417163765       22.0441658414  W2        6647            0.0000000000
     19941      6647  TIP3      H2            -22.1345687078      -19.3190263765       21.9132758414  W2        6647            0.0000000000
     19942      6648  TIP3      OH2           -18.3680287078      -19.1296563765        9.3449758414  W2        6648            0.0000000000
     19943      6648  TIP3      H1            -17.6242387078      -18.5436063765        9.2051358414  W2        6648            0.0000000000
     19944      6648  TIP3      H2            -19.0622187078      -18.5610763765        9.6782158414  W2        6648            0.0000000000
     19945      6649  TIP3      OH2           -34.2933487078      -32.7532363765       21.9467958414  W2        6649            0.0000000000
     19946      6649  TIP3      H1            -35.1861187078      -32.4146963765       21.8791958414  W2        6649            0.0000000000
     19947      6649  TIP3      H2            -34.3920687078      -33.6086263765       22.3648758414  W2        6649            0.0000000000
     19948      6650  TIP3      OH2           -22.0055387078      -24.9367063765       11.3707458414  W2        6650            0.0000000000
     19949      6650  TIP3      H1            -22.2827787078      -25.6647763765       11.9268558414  W2        6650            0.0000000000
     19950      6650  TIP3      H2            -21.0782387078      -24.8175063765       11.5760058414  W2        6650            0.0000000000
     19951      6651  TIP3      OH2           -34.6421487078      -20.9487963765       20.3817358414  W2        6651            0.0000000000
     19952      6651  TIP3      H1            -34.4251187078      -21.8805563765       20.3507058414  W2        6651            0.0000000000
     19953      6651  TIP3      H2            -34.3957987078      -20.6742963765       21.2650158414  W2        6651            0.0000000000
     19954      6652  TIP3      OH2           -28.7806887078      -22.4972963765        7.5909558414  W2        6652            0.0000000000
     19955      6652  TIP3      H1            -28.5417087078      -23.2454863765        7.0438458414  W2        6652            0.0000000000
     19956      6652  TIP3      H2            -29.0495587078      -22.8851263765        8.4237358414  W2        6652            0.0000000000
     19957      6653  TIP3      OH2           -29.8436287078      -22.9269163765       10.0472158414  W2        6653            0.0000000000
     19958      6653  TIP3      H1            -29.6968287078      -23.4469363765       10.8373058414  W2        6653            0.0000000000
     19959      6653  TIP3      H2            -29.8464587078      -22.0201563765       10.3538058414  W2        6653            0.0000000000
     19960      6654  TIP3      OH2           -33.3905187078      -25.6745863765       10.5577558414  W2        6654            0.0000000000
     19961      6654  TIP3      H1            -34.0765887078      -25.3223363765       11.1247258414  W2        6654            0.0000000000
     19962      6654  TIP3      H2            -32.8677287078      -24.9116263765       10.3111858414  W2        6654            0.0000000000
     19963      6655  TIP3      OH2           -25.5590087078      -33.0122063765       20.8366558414  W2        6655            0.0000000000
     19964      6655  TIP3      H1            -24.8602187078      -32.9383363765       21.4866258414  W2        6655            0.0000000000
     19965      6655  TIP3      H2            -25.9398687078      -33.8767063765       20.9909458414  W2        6655            0.0000000000
     19966      6656  TIP3      OH2           -24.7745187078      -33.3600363765       11.9338858414  W2        6656            0.0000000000
     19967      6656  TIP3      H1            -24.5546887078      -32.8884963765       11.1304258414  W2        6656            0.0000000000
     19968      6656  TIP3      H2            -24.2161187078      -32.9657763765       12.6039458414  W2        6656            0.0000000000
     19969      6657  TIP3      OH2           -27.1059087078      -21.2295563765       10.7966358414  W2        6657            0.0000000000
     19970      6657  TIP3      H1            -27.9222987078      -20.7325863765       10.8490658414  W2        6657            0.0000000000
     19971      6657  TIP3      H2            -26.5762787078      -20.7542063765       10.1565158414  W2        6657            0.0000000000
     19972      6658  TIP3      OH2           -27.5745287078      -31.6321563765       12.7687258414  W2        6658            0.0000000000
     19973      6658  TIP3      H1            -26.7622687078      -31.1278363765       12.8148958414  W2        6658            0.0000000000
     19974      6658  TIP3      H2            -27.8192287078      -31.7771863765       13.6826858414  W2        6658            0.0000000000
     19975      6659  TIP3      OH2           -27.0388887078      -30.6458863765       21.9533858414  W2        6659            0.0000000000
     19976      6659  TIP3      H1            -26.9198587078      -30.0723463765       22.7104258414  W2        6659            0.0000000000
     19977      6659  TIP3      H2            -26.3834287078      -31.3339463765       22.0681658414  W2        6659            0.0000000000
     19978      6660  TIP3      OH2           -26.6908587078      -34.5508563765       13.7068358414  W2        6660            0.0000000000
     19979      6660  TIP3      H1            -27.0375087078      -33.9337963765       14.3512658414  W2        6660            0.0000000000
     19980      6660  TIP3      H2            -26.0321687078      -34.0502863765       13.2253858414  W2        6660            0.0000000000
     19981      6661  TIP3      OH2           -29.7675987078      -20.1858363765       10.7783258414  W2        6661            0.0000000000
     19982      6661  TIP3      H1            -29.6067287078      -19.3860863765       10.2775858414  W2        6661            0.0000000000
     19983      6661  TIP3      H2            -29.9648187078      -19.8792363765       11.6633858414  W2        6661            0.0000000000
     19984      6662  TIP3      OH2           -31.0331587078      -33.4879163765       10.3940858414  W2        6662            0.0000000000
     19985      6662  TIP3      H1            -31.1166787078      -32.5996063765       10.7407258414  W2        6662            0.0000000000
     19986      6662  TIP3      H2            -30.1431287078      -33.7532463765       10.6257658414  W2        6662            0.0000000000
     19987      6663  TIP3      OH2           -20.8343087078      -32.7388563765       22.7883558414  W2        6663            0.0000000000
     19988      6663  TIP3      H1            -21.7507287078      -32.4766863765       22.7007258414  W2        6663            0.0000000000
     19989      6663  TIP3      H2            -20.4988087078      -32.7419563765       21.8918858414  W2        6663            0.0000000000
     19990      6664  TIP3      OH2           -22.2322087078      -28.9887563765       16.8840858414  W2        6664            0.0000000000
     19991      6664  TIP3      H1            -23.0297687078      -29.4037363765       16.5555858414  W2        6664            0.0000000000
     19992      6664  TIP3      H2            -21.7870987078      -29.6793863765       17.3751358414  W2        6664            0.0000000000
     19993      6665  TIP3      OH2           -32.7746287078      -23.0606963765        9.4545358414  W2        6665            0.0000000000
     19994      6665  TIP3      H1            -32.1824787078      -22.3612163765        9.7307758414  W2        6665            0.0000000000
     19995      6665  TIP3      H2            -32.3153287078      -23.4937463765        8.7349958414  W2        6665            0.0000000000
     19996      6666  TIP3      OH2           -34.4587087078      -30.3963963765        8.5704758414  W2        6666            0.0000000000
     19997      6666  TIP3      H1            -34.5034487078      -29.4570863765        8.7491758414  W2        6666            0.0000000000
     19998      6666  TIP3      H2            -35.3463887078      -30.6319063765        8.3006858414  W2        6666            0.0000000000
     19999      6667  TIP3      OH2           -21.1457487078      -19.7325063765       18.5064358414  W2        6667            0.0000000000
     20000      6667  TIP3      H1            -21.3013187078      -19.0540663765       17.8493658414  W2        6667            0.0000000000
     20001      6667  TIP3      H2            -20.2131087078      -19.6605763765       18.7094958414  W2        6667            0.0000000000
     20002      6668  TIP3      OH2           -33.6505087078      -35.6147363765       17.2435758414  W2        6668            0.0000000000
     20003      6668  TIP3      H1            -33.8795287078      -35.5554863765       16.3160758414  W2        6668            0.0000000000
     20004      6668  TIP3      H2            -34.0931687078      -36.4061863765       17.5499858414  W2        6668            0.0000000000
     20005      6669  TIP3      OH2           -34.7201787078      -21.6740263765       13.4041558414  W2        6669            0.0000000000
     20006      6669  TIP3      H1            -35.5523187078      -21.2017563765       13.4312958414  W2        6669            0.0000000000
     20007      6669  TIP3      H2            -34.1743487078      -21.1642663765       12.8054658414  W2        6669            0.0000000000
     20008      6670  TIP3      OH2           -35.4318087078      -19.0616563765       24.7339558414  W2        6670            0.0000000000
     20009      6670  TIP3      H1            -34.8915887078      -19.2782563765       25.4938758414  W2        6670            0.0000000000
     20010      6670  TIP3      H2            -35.9130087078      -19.8670563765       24.5442058414  W2        6670            0.0000000000
     20011      6671  TIP3      OH2           -30.8344687078      -20.1422163765       26.3543758414  W2        6671            0.0000000000
     20012      6671  TIP3      H1            -30.0667487078      -20.6011363765       26.6952958414  W2        6671            0.0000000000
     20013      6671  TIP3      H2            -30.8558487078      -20.3682363765       25.4244958414  W2        6671            0.0000000000
     20014      6672  TIP3      OH2           -26.7425087078      -20.6341563765        7.7295558414  W2        6672            0.0000000000
     20015      6672  TIP3      H1            -27.3864087078      -21.2652963765        8.0509258414  W2        6672            0.0000000000
     20016      6672  TIP3      H2            -25.9806787078      -21.1653563765        7.4979058414  W2        6672            0.0000000000
     20017      6673  TIP3      OH2           -24.2575987078      -21.7621063765       25.0835258414  W2        6673            0.0000000000
     20018      6673  TIP3      H1            -24.6086487078      -22.6188063765       25.3265658414  W2        6673            0.0000000000
     20019      6673  TIP3      H2            -23.5312787078      -21.6194363765       25.6904258414  W2        6673            0.0000000000
     20020      6674  TIP3      OH2           -22.1382187078      -20.8171663765        7.9633558414  W2        6674            0.0000000000
     20021      6674  TIP3      H1            -21.8551787078      -21.6116463765        8.4160458414  W2        6674            0.0000000000
     20022      6674  TIP3      H2            -21.3984287078      -20.5840663765        7.4024658414  W2        6674            0.0000000000
     20023      6675  TIP3      OH2           -35.5248587078      -25.2512463765       25.6883858414  W2        6675            0.0000000000
     20024      6675  TIP3      H1            -35.3808087078      -26.1531763765       25.4020558414  W2        6675            0.0000000000
     20025      6675  TIP3      H2            -36.2971187078      -24.9650363765       25.2006158414  W2        6675            0.0000000000
     20026      6676  TIP3      OH2           -31.1834887078      -24.9076763765        7.8208458414  W2        6676            0.0000000000
     20027      6676  TIP3      H1            -31.1190787078      -25.7017163765        8.3514858414  W2        6676            0.0000000000
     20028      6676  TIP3      H2            -30.5305687078      -25.0263963765        7.1310458414  W2        6676            0.0000000000
     20029      6677  TIP3      OH2           -28.8692487078      -25.2814363765       25.1210258414  W2        6677            0.0000000000
     20030      6677  TIP3      H1            -29.1978687078      -25.0106263765       24.2637658414  W2        6677            0.0000000000
     20031      6677  TIP3      H2            -28.7174287078      -26.2224563765       25.0335258414  W2        6677            0.0000000000
     20032      6678  TIP3      OH2           -25.8311487078      -23.8605063765        7.5566458414  W2        6678            0.0000000000
     20033      6678  TIP3      H1            -26.0997387078      -23.6802963765        8.4575358414  W2        6678            0.0000000000
     20034      6678  TIP3      H2            -26.0375887078      -24.7858863765        7.4252258414  W2        6678            0.0000000000
     20035      6679  TIP3      OH2           -23.1347287078      -25.3657063765       22.5042558414  W2        6679            0.0000000000
     20036      6679  TIP3      H1            -22.3892487078      -24.7773363765       22.3846558414  W2        6679            0.0000000000
     20037      6679  TIP3      H2            -23.8920487078      -24.7837363765       22.5675658414  W2        6679            0.0000000000
     20038      6680  TIP3      OH2           -34.6922087078      -28.0509163765       25.1083158414  W2        6680            0.0000000000
     20039      6680  TIP3      H1            -34.2840887078      -28.9082563765       24.9873758414  W2        6680            0.0000000000
     20040      6680  TIP3      H2            -34.9524487078      -28.0367863765       26.0293458414  W2        6680            0.0000000000
     20041      6681  TIP3      OH2           -30.0341087078      -26.9350563765       10.1266458414  W2        6681            0.0000000000
     20042      6681  TIP3      H1            -30.4939087078      -27.4192263765       10.8124958414  W2        6681            0.0000000000
     20043      6681  TIP3      H2            -29.7792387078      -27.6035163765        9.4906958414  W2        6681            0.0000000000
     20044      6682  TIP3      OH2           -30.7451787078      -29.0423463765       22.4826058414  W2        6682            0.0000000000
     20045      6682  TIP3      H1            -31.3635687078      -28.3676863765       22.7630758414  W2        6682            0.0000000000
     20046      6682  TIP3      H2            -30.4010587078      -28.7209563765       21.6492258414  W2        6682            0.0000000000
     20047      6683  TIP3      OH2           -28.9630687078      -28.6918763765        8.3889658414  W2        6683            0.0000000000
     20048      6683  TIP3      H1            -29.1435687078      -28.8467563765        7.4617958414  W2        6683            0.0000000000
     20049      6683  TIP3      H2            -28.0130187078      -28.5840063765        8.4337558414  W2        6683            0.0000000000
     20050      6684  TIP3      OH2           -25.7253587078      -26.5708163765       25.7600858414  W2        6684            0.0000000000
     20051      6684  TIP3      H1            -24.7722387078      -26.4869063765       25.7326858414  W2        6684            0.0000000000
     20052      6684  TIP3      H2            -25.8858987078      -27.2826363765       26.3795758414  W2        6684            0.0000000000
     20053      6685  TIP3      OH2           -19.5732387078      -26.3374563765        7.8347758414  W2        6685            0.0000000000
     20054      6685  TIP3      H1            -19.8467587078      -26.7619063765        7.0216058414  W2        6685            0.0000000000
     20055      6685  TIP3      H2            -19.5338287078      -25.4060063765        7.6178158414  W2        6685            0.0000000000
     20056      6686  TIP3      OH2           -30.4058087078      -31.6872663765       23.5649158414  W2        6686            0.0000000000
     20057      6686  TIP3      H1            -30.2557187078      -32.4161363765       22.9628858414  W2        6686            0.0000000000
     20058      6686  TIP3      H2            -30.4035687078      -30.9100963765       23.0061358414  W2        6686            0.0000000000
     20059      6687  TIP3      OH2           -29.9932387078      -33.3176863765       21.0576558414  W2        6687            0.0000000000
     20060      6687  TIP3      H1            -29.4574887078      -32.8660163765       20.4055858414  W2        6687            0.0000000000
     20061      6687  TIP3      H2            -30.8452787078      -33.4257063765       20.6350658414  W2        6687            0.0000000000
     20062      6688  TIP3      OH2           -28.4113987078      -27.8780663765       21.2971758414  W2        6688            0.0000000000
     20063      6688  TIP3      H1            -27.6609187078      -28.0343163765       20.7239558414  W2        6688            0.0000000000
     20064      6688  TIP3      H2            -28.7505687078      -27.0264063765       21.0217258414  W2        6688            0.0000000000
     20065      6689  TIP3      OH2           -23.9957787078      -30.0628863765       26.3257058414  W2        6689            0.0000000000
     20066      6689  TIP3      H1            -23.8036487078      -30.9939463765       26.2141558414  W2        6689            0.0000000000
     20067      6689  TIP3      H2            -23.1381487078      -29.6379363765       26.3152458414  W2        6689            0.0000000000
     20068      6690  TIP3      OH2           -22.6790587078      -27.2743663765       24.4029758414  W2        6690            0.0000000000
     20069      6690  TIP3      H1            -22.9605587078      -26.5649063765       23.8253558414  W2        6690            0.0000000000
     20070      6690  TIP3      H2            -21.7366287078      -27.3470663765       24.2520958414  W2        6690            0.0000000000
     20071      6691  TIP3      OH2           -31.9271787078      -30.4889163765       25.4764758414  W2        6691            0.0000000000
     20072      6691  TIP3      H1            -32.6942787078      -31.0214363765       25.2662358414  W2        6691            0.0000000000
     20073      6691  TIP3      H2            -31.2482787078      -30.7988763765       24.8771058414  W2        6691            0.0000000000
     20074      6692  TIP3      OH2           -29.1876887078      -35.8611163765       21.4890158414  W2        6692            0.0000000000
     20075      6692  TIP3      H1            -29.2857287078      -34.9147963765       21.3836358414  W2        6692            0.0000000000
     20076      6692  TIP3      H2            -29.9300687078      -36.2337363765       21.0133658414  W2        6692            0.0000000000
     20077      6693  TIP3      OH2           -27.9236387078      -31.5395763765       25.0528558414  W2        6693            0.0000000000
     20078      6693  TIP3      H1            -28.1590987078      -31.7589063765       25.9543458414  W2        6693            0.0000000000
     20079      6693  TIP3      H2            -28.7069487078      -31.7464563765       24.5431058414  W2        6693            0.0000000000
     20080      6694  TIP3      OH2           -25.2079787078      -32.4122263765       24.1282058414  W2        6694            0.0000000000
     20081      6694  TIP3      H1            -26.1554387078      -32.3802563765       24.2605358414  W2        6694            0.0000000000
     20082      6694  TIP3      H2            -24.8953087078      -33.0375163765       24.7820258414  W2        6694            0.0000000000
     20083      6695  TIP3      OH2           -23.5738287078      -33.7781163765       26.1333958414  W2        6695            0.0000000000
     20084      6695  TIP3      H1            -23.6706487078      -34.7303863765       26.1275858414  W2        6695            0.0000000000
     20085      6695  TIP3      H2            -23.8955187078      -33.5094363765       26.9939458414  W2        6695            0.0000000000
     20086      6696  TIP3      OH2           -33.7468987078      -32.5685363765       25.1809458414  W2        6696            0.0000000000
     20087      6696  TIP3      H1            -33.5351587078      -33.2749263765       24.5706958414  W2        6696            0.0000000000
     20088      6696  TIP3      H2            -33.8581487078      -33.0059363765       26.0250658414  W2        6696            0.0000000000
     20089      6697  TIP3      OH2           -28.9658787078      -36.5673763765       24.1602958414  W2        6697            0.0000000000
     20090      6697  TIP3      H1            -28.2540387078      -37.2071563765       24.1462058414  W2        6697            0.0000000000
     20091      6697  TIP3      H2            -29.0668387078      -36.3005463765       23.2466058414  W2        6697            0.0000000000
     20092      6698  TIP3      OH2           -28.6121287078      -34.8845363765       26.2139258414  W2        6698            0.0000000000
     20093      6698  TIP3      H1            -28.7439087078      -35.3601563765       25.3937758414  W2        6698            0.0000000000
     20094      6698  TIP3      H2            -29.2113887078      -34.1401763765       26.1586358414  W2        6698            0.0000000000
     20095      6699  TIP3      OH2           -29.0658987078      -18.0015063765        9.3903258414  W2        6699            0.0000000000
     20096      6699  TIP3      H1            -28.1328287078      -17.8436363765        9.5341658414  W2        6699            0.0000000000
     20097      6699  TIP3      H2            -29.3300187078      -17.3262063765        8.7654758414  W2        6699            0.0000000000
     20098      6700  TIP3      OH2           -35.4974087078      -23.3651263765        8.8731358414  W2        6700            0.0000000000
     20099      6700  TIP3      H1            -34.5834887078      -23.2862363765        9.1465258414  W2        6700            0.0000000000
     20100      6700  TIP3      H2            -35.4900987078      -24.0521663765        8.2066958414  W2        6700            0.0000000000
     20101      6701  TIP3      OH2           -36.8483487078      -17.9722763765       13.9505258414  W2        6701            0.0000000000
     20102      6701  TIP3      H1            -37.4956387078      -18.4341063765       13.4176458414  W2        6701            0.0000000000
     20103      6701  TIP3      H2            -36.4938887078      -18.6439463765       14.5331458414  W2        6701            0.0000000000
     20104      6702  TIP3      OH2           -35.9784287078      -19.8915763765       15.7551458414  W2        6702            0.0000000000
     20105      6702  TIP3      H1            -36.3127487078      -20.7718463765       15.9271658414  W2        6702            0.0000000000
     20106      6702  TIP3      H2            -35.7561887078      -19.5460763765       16.6197058414  W2        6702            0.0000000000
     20107      6703  TIP3      OH2           -18.4299487078      -19.0819363765       18.7356258414  W2        6703            0.0000000000
     20108      6703  TIP3      H1            -18.4512787078      -18.8970963765       19.6745658414  W2        6703            0.0000000000
     20109      6703  TIP3      H2            -17.7393287078      -18.5135363765       18.3947658414  W2        6703            0.0000000000
     20110      6704  TIP3      OH2           -18.8666587078      -19.5148263765       21.6575358414  W2        6704            0.0000000000
     20111      6704  TIP3      H1            -19.3537887078      -20.2504163765       21.2862758414  W2        6704            0.0000000000
     20112      6704  TIP3      H2            -18.3173887078      -19.9084363765       22.3354758414  W2        6704            0.0000000000
     20113      6705  TIP3      OH2           -20.4159287078      -23.7250163765       26.2955658414  W2        6705            0.0000000000
     20114      6705  TIP3      H1            -21.2818187078      -23.8300463765       26.6897958414  W2        6705            0.0000000000
     20115      6705  TIP3      H2            -20.0393387078      -22.9666863765       26.7420358414  W2        6705            0.0000000000
     20116      6706  TIP3      OH2           -19.1149587078      -25.4686463765       11.8098158414  W2        6706            0.0000000000
     20117      6706  TIP3      H1            -18.2648187078      -25.0475563765       11.9369758414  W2        6706            0.0000000000
     20118      6706  TIP3      H2            -19.1094487078      -26.2086363765       12.4169558414  W2        6706            0.0000000000
     20119      6707  TIP3      OH2           -18.7203987078      -27.4149063765       13.6333858414  W2        6707            0.0000000000
     20120      6707  TIP3      H1            -19.4469387078      -27.8946463765       14.0311458414  W2        6707            0.0000000000
     20121      6707  TIP3      H2            -18.1390687078      -27.2094363765       14.3655458414  W2        6707            0.0000000000
     20122      6708  TIP3      OH2           -18.9612787078      -24.6301563765       18.5811458414  W2        6708            0.0000000000
     20123      6708  TIP3      H1            -18.1278587078      -25.0081563765       18.3005058414  W2        6708            0.0000000000
     20124      6708  TIP3      H2            -18.8492487078      -23.6870363765       18.4620558414  W2        6708            0.0000000000
     20125      6709  TIP3      OH2           -20.4750487078      -21.7524063765       20.8879858414  W2        6709            0.0000000000
     20126      6709  TIP3      H1            -21.1225187078      -21.4272563765       21.5135058414  W2        6709            0.0000000000
     20127      6709  TIP3      H2            -20.9926487078      -22.1926363765       20.2138158414  W2        6709            0.0000000000
     20128      6710  TIP3      OH2           -18.4520887078      -27.5140563765       10.0245158414  W2        6710            0.0000000000
     20129      6710  TIP3      H1            -18.9739787078      -27.1576463765        9.3056058414  W2        6710            0.0000000000
     20130      6710  TIP3      H2            -18.4851687078      -26.8392763765       10.7026058414  W2        6710            0.0000000000
     20131      6711  TIP3      OH2           -20.1031887078      -30.2744963765        8.5752258414  W2        6711            0.0000000000
     20132      6711  TIP3      H1            -20.0067487078      -29.6077963765        7.8951958414  W2        6711            0.0000000000
     20133      6711  TIP3      H2            -20.2432287078      -31.0898663765        8.0937758414  W2        6711            0.0000000000
     20134      6712  TIP3      OH2           -20.9337187078      -28.8942563765       14.1962558414  W2        6712            0.0000000000
     20135      6712  TIP3      H1            -21.0838387078      -29.8393963765       14.1760358414  W2        6712            0.0000000000
     20136      6712  TIP3      H2            -21.2872687078      -28.6131163765       15.0401658414  W2        6712            0.0000000000
     20137      6713  TIP3      OH2           -35.8984787078      -26.8160363765       18.2066358414  W2        6713            0.0000000000
     20138      6713  TIP3      H1            -35.7141887078      -26.8978663765       17.2709258414  W2        6713            0.0000000000
     20139      6713  TIP3      H2            -35.0491887078      -26.9403363765       18.6302758414  W2        6713            0.0000000000
     20140      6714  TIP3      OH2           -20.0774287078      -26.9239263765       23.8350858414  W2        6714            0.0000000000
     20141      6714  TIP3      H1            -19.4946987078      -27.6586963765       24.0268058414  W2        6714            0.0000000000
     20142      6714  TIP3      H2            -19.5134987078      -26.1518963765       23.8816658414  W2        6714            0.0000000000
     20143      6715  TIP3      OH2           -18.5807187078      -29.0213463765       24.5196258414  W2        6715            0.0000000000
     20144      6715  TIP3      H1            -19.4440487078      -29.4001363765       24.3540958414  W2        6715            0.0000000000
     20145      6715  TIP3      H2            -17.9763487078      -29.7598663765       24.4452058414  W2        6715            0.0000000000
     20146      6716  TIP3      OH2           -20.8558087078      -32.8665163765        7.6927758414  W2        6716            0.0000000000
     20147      6716  TIP3      H1            -20.2452287078      -33.2378363765        8.3295958414  W2        6716            0.0000000000
     20148      6716  TIP3      H2            -21.6926587078      -33.2878263765        7.8887758414  W2        6716            0.0000000000
     20149      6717  TIP3      OH2           -21.2232387078      -31.3116763765       12.6587658414  W2        6717            0.0000000000
     20150      6717  TIP3      H1            -20.9435287078      -32.2186363765       12.7829358414  W2        6717            0.0000000000
     20151      6717  TIP3      H2            -20.4640687078      -30.8775263765       12.2696858414  W2        6717            0.0000000000
     20152      6718  TIP3      OH2           -20.6114087078      -30.7299363765       18.0946558414  W2        6718            0.0000000000
     20153      6718  TIP3      H1            -19.6786087078      -30.5179463765       18.0602558414  W2        6718            0.0000000000
     20154      6718  TIP3      H2            -20.8466587078      -30.6287263765       19.0169558414  W2        6718            0.0000000000
     20155      6719  TIP3      OH2           -20.5822187078      -29.9934063765       20.8705958414  W2        6719            0.0000000000
     20156      6719  TIP3      H1            -21.4250887078      -29.7253663765       21.2365758414  W2        6719            0.0000000000
     20157      6719  TIP3      H2            -20.1397887078      -29.1712163765       20.6597058414  W2        6719            0.0000000000
     20158      6720  TIP3      OH2           -36.3009987078      -31.5455363765       24.3475158414  W2        6720            0.0000000000
     20159      6720  TIP3      H1            -35.3815087078      -31.6677063765       24.5838258414  W2        6720            0.0000000000
     20160      6720  TIP3      H2            -36.7505487078      -32.2955663765       24.7368658414  W2        6720            0.0000000000
     20161      6721  TIP3      OH2           -18.2990587078      -36.0133863765       26.2240958414  W2        6721            0.0000000000
     20162      6721  TIP3      H1            -17.9493587078      -36.6670363765       25.6185658414  W2        6721            0.0000000000
     20163      6721  TIP3      H2            -18.1521087078      -35.1759763765       25.7843558414  W2        6721            0.0000000000
     20164      6722  TIP3      OH2           -20.6097587078      -34.0487463765       12.7069658414  W2        6722            0.0000000000
     20165      6722  TIP3      H1            -20.4272587078      -34.4975963765       13.5324658414  W2        6722            0.0000000000
     20166      6722  TIP3      H2            -21.2094687078      -34.6333063765       12.2434258414  W2        6722            0.0000000000
     20167      6723  TIP3      OH2           -35.0797487078      -33.2333763765       17.2388058414  W2        6723            0.0000000000
     20168      6723  TIP3      H1            -34.6345887078      -34.0251263765       17.5407758414  W2        6723            0.0000000000
     20169      6723  TIP3      H2            -34.6134487078      -32.5168563765       17.6693658414  W2        6723            0.0000000000
     20170      6724  TIP3      OH2           -36.7757187078      -30.2340763765       18.3078258414  W2        6724            0.0000000000
     20171      6724  TIP3      H1            -36.2837387078      -30.4550263765       17.5170258414  W2        6724            0.0000000000
     20172      6724  TIP3      H2            -36.4136287078      -29.3937363765       18.5887758414  W2        6724            0.0000000000
     20173      6725  TIP3      OH2           -18.7793387078      -33.9039263765       24.5732258414  W2        6725            0.0000000000
     20174      6725  TIP3      H1            -19.6967687078      -33.6332163765       24.5375758414  W2        6725            0.0000000000
     20175      6725  TIP3      H2            -18.6563987078      -34.4390863765       23.7891958414  W2        6725            0.0000000000
     20176      6726  TIP3      OH2           -18.7431387078      -33.9809363765        9.2349958414  W2        6726            0.0000000000
     20177      6726  TIP3      H1            -18.3308787078      -34.7023663765        8.7597958414  W2        6726            0.0000000000
     20178      6726  TIP3      H2            -18.0614887078      -33.3114763765        9.2934258414  W2        6726            0.0000000000
     20179      6727  TIP3      OH2           -36.4620687078      -33.9761663765       12.3620658414  W2        6727            0.0000000000
     20180      6727  TIP3      H1            -37.3872287078      -33.7675063765       12.2326158414  W2        6727            0.0000000000
     20181      6727  TIP3      H2            -36.0080787078      -33.4920863765       11.6722958414  W2        6727            0.0000000000
     20182      6728  TIP3      OH2           -21.6913487078      -18.9919963765       14.3078058414  W2        6728            0.0000000000
     20183      6728  TIP3      H1            -21.0390587078      -19.3397863765       13.6997158414  W2        6728            0.0000000000
     20184      6728  TIP3      H2            -21.1809687078      -18.5036763765       14.9537758414  W2        6728            0.0000000000
     20185      6729  TIP3      OH2           -36.4985287078      -35.2382663765       20.7063158414  W2        6729            0.0000000000
     20186      6729  TIP3      H1            -37.1634787078      -35.4842363765       21.3494058414  W2        6729            0.0000000000
     20187      6729  TIP3      H2            -36.9413987078      -34.6162263765       20.1291158414  W2        6729            0.0000000000
     20188      6730  TIP3      OH2           -34.3065987078      -22.0628563765       24.8508958414  W2        6730            0.0000000000
     20189      6730  TIP3      H1            -35.1273487078      -21.8882063765       24.3903658414  W2        6730            0.0000000000
     20190      6730  TIP3      H2            -34.5588187078      -22.1363863765       25.7713358414  W2        6730            0.0000000000
     20191      6731  TIP3      OH2           -31.3523087078      -21.0887363765       21.1092958414  W2        6731            0.0000000000
     20192      6731  TIP3      H1            -31.7771987078      -20.2788863765       20.8267558414  W2        6731            0.0000000000
     20193      6731  TIP3      H2            -30.4480287078      -21.0033263765       20.8072758414  W2        6731            0.0000000000
     20194      6732  TIP3      OH2           -27.0411687078      -19.6897363765       24.0686658414  W2        6732            0.0000000000
     20195      6732  TIP3      H1            -26.8564187078      -20.0231263765       24.9466958414  W2        6732            0.0000000000
     20196      6732  TIP3      H2            -26.1947187078      -19.3798763765       23.7465858414  W2        6732            0.0000000000
     20197      6733  TIP3      OH2           -24.6961287078      -18.4038463765       23.3128058414  W2        6733            0.0000000000
     20198      6733  TIP3      H1            -24.0192387078      -19.0366163765       23.0727258414  W2        6733            0.0000000000
     20199      6733  TIP3      H2            -24.3742487078      -18.0027963765       24.1201358414  W2        6733            0.0000000000
     20200      6734  TIP3      OH2           -19.7787487078      -35.8142963765       22.3923058414  W2        6734            0.0000000000
     20201      6734  TIP3      H1            -20.5913987078      -35.4892663765       22.0047758414  W2        6734            0.0000000000
     20202      6734  TIP3      H2            -19.5458987078      -36.5744463765       21.8592158414  W2        6734            0.0000000000
     20203      6735  TIP3      OH2           -33.9506387078      -17.8323463765       21.1568258414  W2        6735            0.0000000000
     20204      6735  TIP3      H1            -34.6709987078      -17.3922463765       20.7055958414  W2        6735            0.0000000000
     20205      6735  TIP3      H2            -34.3162387078      -18.0828763765       22.0052258414  W2        6735            0.0000000000
     20206      6736  TIP3      OH2           -31.4833787078      -18.2319563765       20.1865458414  W2        6736            0.0000000000
     20207      6736  TIP3      H1            -32.3481587078      -18.1601063765       20.5905558414  W2        6736            0.0000000000
     20208      6736  TIP3      H2            -31.5384787078      -17.6852263765       19.4027958414  W2        6736            0.0000000000
     20209      6737  TIP3      OH2           -26.7728187078      -18.3440663765       19.3621458414  W2        6737            0.0000000000
     20210      6737  TIP3      H1            -27.2294187078      -17.8150963765       18.7079858414  W2        6737            0.0000000000
     20211      6737  TIP3      H2            -26.6100187078      -17.7409263765       20.0873758414  W2        6737            0.0000000000
     20212      6738  TIP3      OH2           -24.4451887078      -19.4661063765       20.3071758414  W2        6738            0.0000000000
     20213      6738  TIP3      H1            -25.3498187078      -19.3010863765       20.0413858414  W2        6738            0.0000000000
     20214      6738  TIP3      H2            -24.0163287078      -18.6128863765       20.2415158414  W2        6738            0.0000000000
     20215      6739  TIP3      OH2           -21.8409987078      -17.8961963765       20.6019558414  W2        6739            0.0000000000
     20216      6739  TIP3      H1            -22.0227987078      -16.9803063765       20.3914458414  W2        6739            0.0000000000
     20217      6739  TIP3      H2            -21.6642187078      -18.3064863765       19.7554158414  W2        6739            0.0000000000
     20218      6740  TIP3      OH2           -34.5358287078      -19.2090963765       18.0670058414  W2        6740            0.0000000000
     20219      6740  TIP3      H1            -34.5542287078      -19.6345863765       18.9242358414  W2        6740            0.0000000000
     20220      6740  TIP3      H2            -33.7310387078      -19.5275963765       17.6582258414  W2        6740            0.0000000000
     20221      6741  TIP3      OH2           -32.3945187078      -20.4992263765       16.7219958414  W2        6741            0.0000000000
     20222      6741  TIP3      H1            -32.6134487078      -21.4154863765       16.8915958414  W2        6741            0.0000000000
     20223      6741  TIP3      H2            -31.5702987078      -20.3591863765       17.1881358414  W2        6741            0.0000000000
     20224      6742  TIP3      OH2           -29.8572687078      -20.0292963765       17.5707958414  W2        6742            0.0000000000
     20225      6742  TIP3      H1            -29.6446987078      -20.9173963765       17.2838858414  W2        6742            0.0000000000
     20226      6742  TIP3      H2            -29.7927587078      -20.0635263765       18.5251958414  W2        6742            0.0000000000
     20227      6743  TIP3      OH2           -26.3488987078      -34.3652363765       16.7151258414  W2        6743            0.0000000000
     20228      6743  TIP3      H1            -27.0232187078      -34.9946763765       16.9707058414  W2        6743            0.0000000000
     20229      6743  TIP3      H2            -25.7849787078      -34.8493463765       16.1119158414  W2        6743            0.0000000000
     20230      6744  TIP3      OH2           -21.2061787078      -36.2578363765       16.8278358414  W2        6744            0.0000000000
     20231      6744  TIP3      H1            -20.6024187078      -35.7102963765       16.3259358414  W2        6744            0.0000000000
     20232      6744  TIP3      H2            -22.0759787078      -35.9387963765       16.5872458414  W2        6744            0.0000000000
     20233      6745  TIP3      OH2           -19.4791387078      -35.1189663765       15.1609258414  W2        6745            0.0000000000
     20234      6745  TIP3      H1            -18.8673887078      -35.6333963765       14.6342858414  W2        6745            0.0000000000
     20235      6745  TIP3      H2            -19.0967987078      -34.2417563765       15.1843658414  W2        6745            0.0000000000
     20236      6746  TIP3      OH2           -34.0221487078      -35.7312063765       14.5371158414  W2        6746            0.0000000000
     20237      6746  TIP3      H1            -34.7991687078      -35.9657163765       14.0297058414  W2        6746            0.0000000000
     20238      6746  TIP3      H2            -33.4917887078      -36.5279963765       14.5459158414  W2        6746            0.0000000000
     20239      6747  TIP3      OH2           -35.1858087078      -35.9333963765       10.3407258414  W2        6747            0.0000000000
     20240      6747  TIP3      H1            -34.7467387078      -35.3223463765        9.7490758414  W2        6747            0.0000000000
     20241      6747  TIP3      H2            -35.8195687078      -35.3949863765       10.8147258414  W2        6747            0.0000000000
     20242      6748  TIP3      OH2           -29.4428887078      -35.8044963765       14.3504258414  W2        6748            0.0000000000
     20243      6748  TIP3      H1            -28.5685487078      -35.4160663765       14.3208558414  W2        6748            0.0000000000
     20244      6748  TIP3      H2            -29.5788087078      -36.0197163765       15.2731458414  W2        6748            0.0000000000
     20245      6749  TIP3      OH2           -23.8860487078      -35.7745163765       15.9995958414  W2        6749            0.0000000000
     20246      6749  TIP3      H1            -23.8098887078      -35.6793563765       15.0501958414  W2        6749            0.0000000000
     20247      6749  TIP3      H2            -24.1611287078      -36.6822263765       16.1285058414  W2        6749            0.0000000000
     20248      6750  TIP3      OH2           -22.5327887078      -35.7487363765       11.6920958414  W2        6750            0.0000000000
     20249      6750  TIP3      H1            -23.2356787078      -35.1338163765       11.4822358414  W2        6750            0.0000000000
     20250      6750  TIP3      H2            -22.9776487078      -36.5860663765       11.8231858414  W2        6750            0.0000000000
     20251      6751  TIP3      OH2           -35.2848587078      -19.9851763765       11.2382358414  W2        6751            0.0000000000
     20252      6751  TIP3      H1            -35.9698687078      -20.0232863765       10.5707458414  W2        6751            0.0000000000
     20253      6751  TIP3      H2            -35.2811387078      -19.0724163765       11.5264458414  W2        6751            0.0000000000
     20254      6752  TIP3      OH2           -33.3248987078      -34.0172463765        8.7831358414  W2        6752            0.0000000000
     20255      6752  TIP3      H1            -32.8335587078      -34.6470063765        8.2556858414  W2        6752            0.0000000000
     20256      6752  TIP3      H2            -32.7012687078      -33.7213063765        9.4462558414  W2        6752            0.0000000000
     20257      6753  TIP3      OH2           -28.2988887078      -33.7240963765       11.2401858414  W2        6753            0.0000000000
     20258      6753  TIP3      H1            -28.1207587078      -34.3707763765       11.9230458414  W2        6753            0.0000000000
     20259      6753  TIP3      H2            -28.3522687078      -32.8903263765       11.7072958414  W2        6753            0.0000000000
     20260      6754  TIP3      OH2           -26.4205087078      -18.7756863765        9.6358558414  W2        6754            0.0000000000
     20261      6754  TIP3      H1            -25.5544887078      -18.4089463765        9.4576758414  W2        6754            0.0000000000
     20262      6754  TIP3      H2            -26.6672287078      -19.2148863765        8.8219358414  W2        6754            0.0000000000
     20263      6755  TIP3      OH2           -19.7115487078      -19.2126563765       12.3149658414  W2        6755            0.0000000000
     20264      6755  TIP3      H1            -19.9058387078      -19.9604463765       11.7499258414  W2        6755            0.0000000000
     20265      6755  TIP3      H2            -19.7505387078      -18.4546463765       11.7317558414  W2        6755            0.0000000000
     20266      6756  TIP3      OH2           -34.0643487078      -35.2170163765       24.0547358414  W2        6756            0.0000000000
     20267      6756  TIP3      H1            -34.4305287078      -35.9827563765       24.4972058414  W2        6756            0.0000000000
     20268      6756  TIP3      H2            -33.1514987078      -35.1879963765       24.3412458414  W2        6756            0.0000000000
     20269      6757  TIP3      OH2           -32.0912687078      -35.8665763765       25.5904458414  W2        6757            0.0000000000
     20270      6757  TIP3      H1            -31.1929087078      -36.1405563765       25.4057858414  W2        6757            0.0000000000
     20271      6757  TIP3      H2            -32.4779587078      -36.6089763765       26.0547058414  W2        6757            0.0000000000
     20272      6758  TIP3      OH2           -33.4667387078      -19.0650963765        8.2634458414  W2        6758            0.0000000000
     20273      6758  TIP3      H1            -33.7342787078      -18.7788063765        9.1367558414  W2        6758            0.0000000000
     20274      6758  TIP3      H2            -32.6954787078      -19.6111763765        8.4156958414  W2        6758            0.0000000000
     20275      6759  TIP3      OH2           -23.6700387078      -36.5340463765       25.7727258414  W2        6759            0.0000000000
     20276      6759  TIP3      H1            -23.5933187078      -36.9599763765       26.6264958414  W2        6759            0.0000000000
     20277      6759  TIP3      H2            -22.7763787078      -36.5205763765       25.4300758414  W2        6759            0.0000000000
     20278      6760  TIP3      OH2           -20.4939287078      -20.4614163765       24.4651458414  W2        6760            0.0000000000
     20279      6760  TIP3      H1            -21.2757387078      -20.6476163765       23.9452058414  W2        6760            0.0000000000
     20280      6760  TIP3      H2            -20.5659387078      -19.5319863765       24.6823958414  W2        6760            0.0000000000
     20281      6761  TIP3      OH2            -6.0878887078      -26.5749763765       14.4958658414  W2        6761            0.0000000000
     20282      6761  TIP3      H1             -5.9987787078      -25.6311563765       14.3635758414  W2        6761            0.0000000000
     20283      6761  TIP3      H2             -6.7261287078      -26.8503363765       13.8378058414  W2        6761            0.0000000000
     20284      6762  TIP3      OH2            -7.1547587078      -27.3199063765       17.9146858414  W2        6762            0.0000000000
     20285      6762  TIP3      H1             -7.1930087078      -27.9662763765       18.6196458414  W2        6762            0.0000000000
     20286      6762  TIP3      H2             -7.4771087078      -27.7864663765       17.1435558414  W2        6762            0.0000000000
     20287      6763  TIP3      OH2           -14.7862587078      -27.7056963765       19.5076758414  W2        6763            0.0000000000
     20288      6763  TIP3      H1            -14.7450487078      -28.3313663765       20.2309158414  W2        6763            0.0000000000
     20289      6763  TIP3      H2            -14.0834887078      -27.0818363765       19.6897158414  W2        6763            0.0000000000
     20290      6764  TIP3      OH2            -3.4487387078      -24.3808663765       16.2161958414  W2        6764            0.0000000000
     20291      6764  TIP3      H1             -3.8894687078      -25.1012663765       16.6667558414  W2        6764            0.0000000000
     20292      6764  TIP3      H2             -3.4617687078      -23.6601463765       16.8459658414  W2        6764            0.0000000000
     20293      6765  TIP3      OH2           -13.8629487078      -23.2558063765       18.0425858414  W2        6765            0.0000000000
     20294      6765  TIP3      H1            -14.2324287078      -24.0577563765       17.6730158414  W2        6765            0.0000000000
     20295      6765  TIP3      H2            -12.9218387078      -23.4243163765       18.0889258414  W2        6765            0.0000000000
     20296      6766  TIP3      OH2           -17.2528987078      -29.5955463765       13.4354658414  W2        6766            0.0000000000
     20297      6766  TIP3      H1            -17.7005587078      -28.7496763765       13.4171158414  W2        6766            0.0000000000
     20298      6766  TIP3      H2            -17.8137787078      -30.1751263765       12.9199758414  W2        6766            0.0000000000
     20299      6767  TIP3      OH2           -16.5422887078      -27.4335863765       15.5612658414  W2        6767            0.0000000000
     20300      6767  TIP3      H1            -16.3289387078      -28.2034263765       16.0885658414  W2        6767            0.0000000000
     20301      6767  TIP3      H2            -15.8045287078      -27.3439163765       14.9580258414  W2        6767            0.0000000000
     20302      6768  TIP3      OH2            -6.3371887078      -19.2766963765       16.4282358414  W2        6768            0.0000000000
     20303      6768  TIP3      H1             -5.7175487078      -19.9532263765       16.1551558414  W2        6768            0.0000000000
     20304      6768  TIP3      H2             -6.5454487078      -19.4946163765       17.3367258414  W2        6768            0.0000000000
     20305      6769  TIP3      OH2            -8.7653187078      -24.8877663765       18.3207858414  W2        6769            0.0000000000
     20306      6769  TIP3      H1             -8.4615287078      -25.5736263765       17.7261958414  W2        6769            0.0000000000
     20307      6769  TIP3      H2             -8.0439187078      -24.7688963765       18.9385858414  W2        6769            0.0000000000
     20308      6770  TIP3      OH2            -0.1023387078      -33.2862363765       19.1814058414  W2        6770            0.0000000000
     20309      6770  TIP3      H1             -0.0531187078      -32.6761163765       19.9173158414  W2        6770            0.0000000000
     20310      6770  TIP3      H2              0.3231712922      -32.8251463765       18.4585158414  W2        6770            0.0000000000
     20311      6771  TIP3      OH2            -5.6246187078      -30.4935263765       18.6482658414  W2        6771            0.0000000000
     20312      6771  TIP3      H1             -5.4820287078      -31.4398263765       18.6684258414  W2        6771            0.0000000000
     20313      6771  TIP3      H2             -5.7307187078      -30.2865463765       17.7197558414  W2        6771            0.0000000000
     20314      6772  TIP3      OH2           -12.4697887078      -32.3918863765       15.9207458414  W2        6772            0.0000000000
     20315      6772  TIP3      H1            -12.4266787078      -31.5320363765       15.5023758414  W2        6772            0.0000000000
     20316      6772  TIP3      H2            -12.9273787078      -32.9444163765       15.2870658414  W2        6772            0.0000000000
     20317      6773  TIP3      OH2            -4.7475187078      -32.2613263765       14.3215758414  W2        6773            0.0000000000
     20318      6773  TIP3      H1             -4.1010887078      -32.5900063765       14.9463358414  W2        6773            0.0000000000
     20319      6773  TIP3      H2             -4.2375787078      -31.7434263765       13.6987158414  W2        6773            0.0000000000
     20320      6774  TIP3      OH2           -15.8496387078      -29.9953063765       16.6828858414  W2        6774            0.0000000000
     20321      6774  TIP3      H1            -15.1959787078      -30.5451363765       17.1148958414  W2        6774            0.0000000000
     20322      6774  TIP3      H2            -15.8257087078      -30.2694063765       15.7660858414  W2        6774            0.0000000000
     20323      6775  TIP3      OH2           -10.6931887078      -28.4451763765       15.8980358414  W2        6775            0.0000000000
     20324      6775  TIP3      H1            -10.0770887078      -28.9716363765       16.4074358414  W2        6775            0.0000000000
     20325      6775  TIP3      H2            -11.2793087078      -29.0853063765       15.4943958414  W2        6775            0.0000000000
     20326      6776  TIP3      OH2             0.2891212922      -31.8083163765       21.4173858414  W2        6776            0.0000000000
     20327      6776  TIP3      H1             -0.3994187078      -31.1502463765       21.3220458414  W2        6776            0.0000000000
     20328      6776  TIP3      H2              0.3045812922      -32.0055263765       22.3539258414  W2        6776            0.0000000000
     20329      6777  TIP3      OH2           -13.6595987078      -33.4740463765       19.9948258414  W2        6777            0.0000000000
     20330      6777  TIP3      H1            -13.8784287078      -32.9439863765       19.2284258414  W2        6777            0.0000000000
     20331      6777  TIP3      H2            -14.3275087078      -33.2474963765       20.6419658414  W2        6777            0.0000000000
     20332      6778  TIP3      OH2            -6.2906187078      -23.9739363765       13.5387358414  W2        6778            0.0000000000
     20333      6778  TIP3      H1             -6.5861087078      -24.2967063765       12.6874258414  W2        6778            0.0000000000
     20334      6778  TIP3      H2             -6.6148387078      -23.0742663765       13.5799958414  W2        6778            0.0000000000
     20335      6779  TIP3      OH2           -11.0904587078      -25.7984763765       20.2821958414  W2        6779            0.0000000000
     20336      6779  TIP3      H1            -11.8305487078      -25.2003263765       20.3857158414  W2        6779            0.0000000000
     20337      6779  TIP3      H2            -10.3765087078      -25.2445163765       19.9665558414  W2        6779            0.0000000000
     20338      6780  TIP3      OH2            -2.9836787078      -32.9703963765       16.3021658414  W2        6780            0.0000000000
     20339      6780  TIP3      H1             -3.1988787078      -33.7360563765       16.8347658414  W2        6780            0.0000000000
     20340      6780  TIP3      H2             -2.3279387078      -32.4979363765       16.8150158414  W2        6780            0.0000000000
     20341      6781  TIP3      OH2           -14.0658687078      -31.5818663765       17.9470458414  W2        6781            0.0000000000
     20342      6781  TIP3      H1            -13.4522387078      -30.9491063765       18.3202858414  W2        6781            0.0000000000
     20343      6781  TIP3      H2            -13.5537987078      -32.0543663765       17.2907358414  W2        6781            0.0000000000
     20344      6782  TIP3      OH2           -12.6830287078      -23.8341763765       21.0693458414  W2        6782            0.0000000000
     20345      6782  TIP3      H1            -12.6882687078      -22.9548263765       20.6912758414  W2        6782            0.0000000000
     20346      6782  TIP3      H2            -13.5366187078      -23.9177663765       21.4943358414  W2        6782            0.0000000000
     20347      6783  TIP3      OH2           -16.5619387078      -24.1633863765       11.8512758414  W2        6783            0.0000000000
     20348      6783  TIP3      H1            -16.8338487078      -23.9342863765       10.9625658414  W2        6783            0.0000000000
     20349      6783  TIP3      H2            -16.5163687078      -23.3255063765       12.3118058414  W2        6783            0.0000000000
     20350      6784  TIP3      OH2            -2.9369687078      -22.5417963765       18.5641258414  W2        6784            0.0000000000
     20351      6784  TIP3      H1             -3.8785987078      -22.4834063765       18.7258158414  W2        6784            0.0000000000
     20352      6784  TIP3      H2             -2.6603587078      -21.6357463765       18.4270958414  W2        6784            0.0000000000
     20353      6785  TIP3      OH2            -2.6362687078      -34.2552663765       19.9815158414  W2        6785            0.0000000000
     20354      6785  TIP3      H1             -3.3723487078      -33.6445563765       19.9436458414  W2        6785            0.0000000000
     20355      6785  TIP3      H2             -1.9528687078      -33.8403663765       19.4551558414  W2        6785            0.0000000000
     20356      6786  TIP3      OH2            -9.6331287078      -36.1685363765       17.4473158414  W2        6786            0.0000000000
     20357      6786  TIP3      H1             -9.7507087078      -37.1169363765       17.3931458414  W2        6786            0.0000000000
     20358      6786  TIP3      H2            -10.4881187078      -35.8359263765       17.7204258414  W2        6786            0.0000000000
     20359      6787  TIP3      OH2            -4.6848487078      -20.7604463765       15.1892858414  W2        6787            0.0000000000
     20360      6787  TIP3      H1             -4.2596187078      -21.4676563765       14.7042458414  W2        6787            0.0000000000
     20361      6787  TIP3      H2             -4.3678487078      -19.9591763765       14.7725058414  W2        6787            0.0000000000
     20362      6788  TIP3      OH2            -3.5251987078      -22.8595963765       13.6979458414  W2        6788            0.0000000000
     20363      6788  TIP3      H1             -3.7827187078      -23.5495863765       13.0865358414  W2        6788            0.0000000000
     20364      6788  TIP3      H2             -3.4541187078      -23.3024763765       14.5435358414  W2        6788            0.0000000000
     20365      6789  TIP3      OH2            -1.8391787078      -24.2929263765       22.1752958414  W2        6789            0.0000000000
     20366      6789  TIP3      H1             -1.6995487078      -24.8846763765       21.4359958414  W2        6789            0.0000000000
     20367      6789  TIP3      H2             -1.6718987078      -23.4203363765       21.8191758414  W2        6789            0.0000000000
     20368      6790  TIP3      OH2            -7.3666387078      -27.3309763765       11.9478958414  W2        6790            0.0000000000
     20369      6790  TIP3      H1             -8.0780887078      -26.7960063765       11.5959458414  W2        6790            0.0000000000
     20370      6790  TIP3      H2             -6.6756787078      -27.2757663765       11.2877858414  W2        6790            0.0000000000
     20371      6791  TIP3      OH2            -7.3127187078      -28.8735463765        8.9863958414  W2        6791            0.0000000000
     20372      6791  TIP3      H1             -6.6117287078      -28.8508563765        9.6377958414  W2        6791            0.0000000000
     20373      6791  TIP3      H2             -7.0104287078      -29.5015763765        8.3303258414  W2        6791            0.0000000000
     20374      6792  TIP3      OH2             0.0027512922      -27.9531263765       20.2413358414  W2        6792            0.0000000000
     20375      6792  TIP3      H1             -0.6498387078      -27.2585663765       20.3304258414  W2        6792            0.0000000000
     20376      6792  TIP3      H2              0.4677812922      -27.7430363765       19.4314958414  W2        6792            0.0000000000
     20377      6793  TIP3      OH2            -3.9608687078      -27.1216463765       12.8994858414  W2        6793            0.0000000000
     20378      6793  TIP3      H1             -4.6927687078      -26.8932763765       13.4725458414  W2        6793            0.0000000000
     20379      6793  TIP3      H2             -3.5136487078      -27.8353763765       13.3542358414  W2        6793            0.0000000000
     20380      6794  TIP3      OH2            -4.0635187078      -28.9473863765       21.9671858414  W2        6794            0.0000000000
     20381      6794  TIP3      H1             -3.9836087078      -28.1839463765       22.5390358414  W2        6794            0.0000000000
     20382      6794  TIP3      H2             -4.6647487078      -28.6681463765       21.2766958414  W2        6794            0.0000000000
     20383      6795  TIP3      OH2           -12.3154987078      -26.4910263765       14.7819858414  W2        6795            0.0000000000
     20384      6795  TIP3      H1            -12.6459787078      -26.8616863765       13.9636858414  W2        6795            0.0000000000
     20385      6795  TIP3      H2            -11.7270887078      -27.1616263765       15.1288158414  W2        6795            0.0000000000
     20386      6796  TIP3      OH2           -10.9487487078      -23.0629663765       17.4632058414  W2        6796            0.0000000000
     20387      6796  TIP3      H1            -11.0436187078      -23.6416563765       16.7066658414  W2        6796            0.0000000000
     20388      6796  TIP3      H2            -10.2193887078      -23.4343963765       17.9594858414  W2        6796            0.0000000000
     20389      6797  TIP3      OH2           -11.9489487078      -27.7224663765       18.4154858414  W2        6797            0.0000000000
     20390      6797  TIP3      H1            -11.3836987078      -27.6010463765       17.6526058414  W2        6797            0.0000000000
     20391      6797  TIP3      H2            -11.6300587078      -27.0849663765       19.0543358414  W2        6797            0.0000000000
     20392      6798  TIP3      OH2            -5.6397287078      -22.2192763765       19.1495358414  W2        6798            0.0000000000
     20393      6798  TIP3      H1             -5.8800687078      -21.5569663765       19.7974558414  W2        6798            0.0000000000
     20394      6798  TIP3      H2             -5.8379087078      -23.0537563765       19.5744958414  W2        6798            0.0000000000
     20395      6799  TIP3      OH2           -11.0688787078      -23.3231963765       23.1326758414  W2        6799            0.0000000000
     20396      6799  TIP3      H1            -11.3801287078      -22.5408763765       23.5879958414  W2        6799            0.0000000000
     20397      6799  TIP3      H2            -11.7188587078      -23.4762863765       22.4468758414  W2        6799            0.0000000000
     20398      6800  TIP3      OH2            -5.0899187078      -27.9593563765       10.5846058414  W2        6800            0.0000000000
     20399      6800  TIP3      H1             -4.5103687078      -27.8093263765       11.3314958414  W2        6800            0.0000000000
     20400      6800  TIP3      H2             -4.6759187078      -27.4886163765        9.8612458414  W2        6800            0.0000000000
     20401      6801  TIP3      OH2           -14.1488887078      -27.1250863765       22.3612458414  W2        6801            0.0000000000
     20402      6801  TIP3      H1            -14.0785687078      -26.4744063765       23.0597458414  W2        6801            0.0000000000
     20403      6801  TIP3      H2            -15.0396687078      -27.0223363765       22.0263358414  W2        6801            0.0000000000
     20404      6802  TIP3      OH2            -7.3634287078      -21.2225063765       14.0199158414  W2        6802            0.0000000000
     20405      6802  TIP3      H1             -6.8896687078      -20.9268763765       14.7973358414  W2        6802            0.0000000000
     20406      6802  TIP3      H2             -7.9264987078      -20.4843463765       13.7868758414  W2        6802            0.0000000000
     20407      6803  TIP3      OH2           -12.8292887078      -21.2516963765       23.8960558414  W2        6803            0.0000000000
     20408      6803  TIP3      H1            -12.8217587078      -21.3877263765       22.9486058414  W2        6803            0.0000000000
     20409      6803  TIP3      H2            -13.7452487078      -21.3688863765       24.1480558414  W2        6803            0.0000000000
     20410      6804  TIP3      OH2            -1.3910787078      -36.2093163765       10.3975758414  W2        6804            0.0000000000
     20411      6804  TIP3      H1             -2.2910087078      -36.0704163765       10.6926358414  W2        6804            0.0000000000
     20412      6804  TIP3      H2             -1.1392387078      -35.3778563765        9.9957458414  W2        6804            0.0000000000
     20413      6805  TIP3      OH2           -13.3252287078      -27.4215963765       12.3712658414  W2        6805            0.0000000000
     20414      6805  TIP3      H1            -13.6170987078      -26.6534263765       11.8803958414  W2        6805            0.0000000000
     20415      6805  TIP3      H2            -13.9997087078      -28.0809763765       12.2084058414  W2        6805            0.0000000000
     20416      6806  TIP3      OH2            -0.2019387078      -21.8430763765        8.7739658414  W2        6806            0.0000000000
     20417      6806  TIP3      H1             -0.1285887078      -20.9040563765        8.9444958414  W2        6806            0.0000000000
     20418      6806  TIP3      H2              0.7035712922      -22.1482163765        8.7176958414  W2        6806            0.0000000000
     20419      6807  TIP3      OH2           -17.2322187078      -25.0586763765       21.1862458414  W2        6807            0.0000000000
     20420      6807  TIP3      H1            -17.7333787078      -25.0867363765       20.3712158414  W2        6807            0.0000000000
     20421      6807  TIP3      H2            -17.2268487078      -25.9643563765       21.4959758414  W2        6807            0.0000000000
     20422      6808  TIP3      OH2           -17.4819487078      -22.2782963765       18.0702658414  W2        6808            0.0000000000
     20423      6808  TIP3      H1            -16.5358887078      -22.4225963765       18.0512158414  W2        6808            0.0000000000
     20424      6808  TIP3      H2            -17.5943187078      -21.4940163765       18.6073858414  W2        6808            0.0000000000
     20425      6809  TIP3      OH2             0.7159012922      -21.6123263765       23.7526358414  W2        6809            0.0000000000
     20426      6809  TIP3      H1              0.6665812922      -22.5675163765       23.7153958414  W2        6809            0.0000000000
     20427      6809  TIP3      H2             -0.1108687078      -21.3447963765       24.1540158414  W2        6809            0.0000000000
     20428      6810  TIP3      OH2            -8.3056987078      -22.0384063765       22.6287758414  W2        6810            0.0000000000
     20429      6810  TIP3      H1             -8.2182387078      -21.2119463765       23.1036858414  W2        6810            0.0000000000
     20430      6810  TIP3      H2             -9.1691887078      -22.3680263765       22.8777058414  W2        6810            0.0000000000
     20431      6811  TIP3      OH2            -7.8911187078      -18.2660363765       12.4348358414  W2        6811            0.0000000000
     20432      6811  TIP3      H1             -7.9665187078      -18.3873163765       11.4883558414  W2        6811            0.0000000000
     20433      6811  TIP3      H2             -7.8582487078      -17.3167663765       12.5532958414  W2        6811            0.0000000000
     20434      6812  TIP3      OH2           -14.2377387078      -19.4773363765       14.2157358414  W2        6812            0.0000000000
     20435      6812  TIP3      H1            -14.0856987078      -19.8252963765       15.0943858414  W2        6812            0.0000000000
     20436      6812  TIP3      H2            -15.0886987078      -19.8336063765       13.9604558414  W2        6812            0.0000000000
     20437      6813  TIP3      OH2            -4.7895187078      -19.1120163765        9.4370758414  W2        6813            0.0000000000
     20438      6813  TIP3      H1             -4.4146787078      -19.8564063765        8.9663358414  W2        6813            0.0000000000
     20439      6813  TIP3      H2             -4.7851487078      -19.3819563765       10.3554058414  W2        6813            0.0000000000
     20440      6814  TIP3      OH2            -5.1207087078      -19.1863063765       12.1862958414  W2        6814            0.0000000000
     20441      6814  TIP3      H1             -6.0557287078      -19.0861163765       12.3649958414  W2        6814            0.0000000000
     20442      6814  TIP3      H2             -4.8405187078      -19.8957063765       12.7646158414  W2        6814            0.0000000000
     20443      6815  TIP3      OH2            -2.1321187078      -30.1190763765       24.2328558414  W2        6815            0.0000000000
     20444      6815  TIP3      H1             -2.5394387078      -29.6385163765       23.5121858414  W2        6815            0.0000000000
     20445      6815  TIP3      H2             -2.0915487078      -31.0244763765       23.9249358414  W2        6815            0.0000000000
     20446      6816  TIP3      OH2           -14.9831687078      -23.7351363765       22.2295258414  W2        6816            0.0000000000
     20447      6816  TIP3      H1            -14.7670387078      -24.0965763765       23.0891058414  W2        6816            0.0000000000
     20448      6816  TIP3      H2            -15.8386987078      -24.1097563765       22.0198758414  W2        6816            0.0000000000
     20449      6817  TIP3      OH2           -12.3643687078      -35.2650863765       18.2249458414  W2        6817            0.0000000000
     20450      6817  TIP3      H1            -13.2259987078      -35.3522663765       17.8172358414  W2        6817            0.0000000000
     20451      6817  TIP3      H2            -12.3867987078      -34.4090763765       18.6527058414  W2        6817            0.0000000000
     20452      6818  TIP3      OH2            -7.7015887078      -35.5430463765       21.5996458414  W2        6818            0.0000000000
     20453      6818  TIP3      H1             -7.2812787078      -35.9583363765       22.3527058414  W2        6818            0.0000000000
     20454      6818  TIP3      H2             -8.6346287078      -35.7217163765       21.7168458414  W2        6818            0.0000000000
     20455      6819  TIP3      OH2            -4.3750987078      -31.7875263765       22.4530958414  W2        6819            0.0000000000
     20456      6819  TIP3      H1             -4.8891487078      -31.9133063765       23.2506958414  W2        6819            0.0000000000
     20457      6819  TIP3      H2             -4.5306287078      -30.8752163765       22.2087158414  W2        6819            0.0000000000
     20458      6820  TIP3      OH2            -3.6126087078      -26.9265263765        8.2143958414  W2        6820            0.0000000000
     20459      6820  TIP3      H1             -3.5705287078      -27.1491363765        7.2843958414  W2        6820            0.0000000000
     20460      6820  TIP3      H2             -2.7633987078      -26.5278163765        8.4043858414  W2        6820            0.0000000000
     20461      6821  TIP3      OH2            -8.0398587078      -33.0507063765        8.8847258414  W2        6821            0.0000000000
     20462      6821  TIP3      H1             -8.2933787078      -33.0315463765        9.8075358414  W2        6821            0.0000000000
     20463      6821  TIP3      H2             -8.2966487078      -33.9221663765        8.5833458414  W2        6821            0.0000000000
     20464      6822  TIP3      OH2           -12.2733587078      -30.2996363765       19.3199658414  W2        6822            0.0000000000
     20465      6822  TIP3      H1            -12.9151487078      -30.3399063765       20.0289758414  W2        6822            0.0000000000
     20466      6822  TIP3      H2            -12.2361587078      -29.3731663765       19.0822658414  W2        6822            0.0000000000
     20467      6823  TIP3      OH2           -12.2764487078      -30.0786263765       14.2319658414  W2        6823            0.0000000000
     20468      6823  TIP3      H1            -13.1691587078      -30.4190163765       14.1733458414  W2        6823            0.0000000000
     20469      6823  TIP3      H2            -11.8257887078      -30.4555363765       13.4762858414  W2        6823            0.0000000000
     20470      6824  TIP3      OH2            -6.7408987078      -29.6625963765       13.0490458414  W2        6824            0.0000000000
     20471      6824  TIP3      H1             -7.1498687078      -28.8477363765       12.7575258414  W2        6824            0.0000000000
     20472      6824  TIP3      H2             -6.0202787078      -29.8025863765       12.4347558414  W2        6824            0.0000000000
     20473      6825  TIP3      OH2            -7.6387387078      -29.4869563765       24.5371158414  W2        6825            0.0000000000
     20474      6825  TIP3      H1             -8.2013587078      -30.1917963765       24.8578958414  W2        6825            0.0000000000
     20475      6825  TIP3      H2             -6.8123987078      -29.6077663765       25.0048758414  W2        6825            0.0000000000
     20476      6826  TIP3      OH2            -5.7361287078      -30.2165563765       15.8630158414  W2        6826            0.0000000000
     20477      6826  TIP3      H1             -5.9316787078      -29.6108763765       15.1480758414  W2        6826            0.0000000000
     20478      6826  TIP3      H2             -5.5548687078      -31.0500363765       15.4286458414  W2        6826            0.0000000000
     20479      6827  TIP3      OH2           -14.5233087078      -29.9792863765       21.1871658414  W2        6827            0.0000000000
     20480      6827  TIP3      H1            -14.5613687078      -29.5791263765       22.0558758414  W2        6827            0.0000000000
     20481      6827  TIP3      H2            -15.0141987078      -30.7960463765       21.2774558414  W2        6827            0.0000000000
     20482      6828  TIP3      OH2           -11.1575687078      -32.6050563765        7.9857658414  W2        6828            0.0000000000
     20483      6828  TIP3      H1            -11.5884987078      -33.0500463765        8.7155058414  W2        6828            0.0000000000
     20484      6828  TIP3      H2            -11.8756987078      -32.2334263765        7.4735158414  W2        6828            0.0000000000
     20485      6829  TIP3      OH2           -17.9152287078      -32.8631063765       15.0376358414  W2        6829            0.0000000000
     20486      6829  TIP3      H1            -17.2844587078      -32.8918963765       15.7570258414  W2        6829            0.0000000000
     20487      6829  TIP3      H2            -17.4657987078      -33.2882363765       14.3072258414  W2        6829            0.0000000000
     20488      6830  TIP3      OH2           -16.6410187078      -32.1169063765       10.4616758414  W2        6830            0.0000000000
     20489      6830  TIP3      H1            -16.1668487078      -31.5259163765        9.8767658414  W2        6830            0.0000000000
     20490      6830  TIP3      H2            -17.3583787078      -31.5866163765       10.8086858414  W2        6830            0.0000000000
     20491      6831  TIP3      OH2            -6.4722087078      -28.5784263765       20.5342558414  W2        6831            0.0000000000
     20492      6831  TIP3      H1             -6.1487287078      -29.2094563765       19.8913058414  W2        6831            0.0000000000
     20493      6831  TIP3      H2             -6.9122787078      -29.1132063765       21.1949958414  W2        6831            0.0000000000
     20494      6832  TIP3      OH2            -9.6949187078      -32.6508763765       15.3183758414  W2        6832            0.0000000000
     20495      6832  TIP3      H1            -10.6058087078      -32.5941963765       15.6069758414  W2        6832            0.0000000000
     20496      6832  TIP3      H2             -9.1896287078      -32.7113263765       16.1290958414  W2        6832            0.0000000000
     20497      6833  TIP3      OH2           -14.8665787078      -31.0222463765       14.1451358414  W2        6833            0.0000000000
     20498      6833  TIP3      H1            -15.7557787078      -30.9226963765       13.8050958414  W2        6833            0.0000000000
     20499      6833  TIP3      H2            -14.5700887078      -31.8639463765       13.7989258414  W2        6833            0.0000000000
     20500      6834  TIP3      OH2           -11.2133987078      -31.0219863765       11.8015958414  W2        6834            0.0000000000
     20501      6834  TIP3      H1            -10.2818487078      -30.8929863765       11.9799058414  W2        6834            0.0000000000
     20502      6834  TIP3      H2            -11.4283687078      -30.3525563765       11.1520658414  W2        6834            0.0000000000
     20503      6835  TIP3      OH2            -5.2897287078      -33.4162463765       18.5825558414  W2        6835            0.0000000000
     20504      6835  TIP3      H1             -5.9665687078      -33.2849363765       19.2465258414  W2        6835            0.0000000000
     20505      6835  TIP3      H2             -5.7752387078      -33.5712963765       17.7723258414  W2        6835            0.0000000000
     20506      6836  TIP3      OH2           -12.5393787078      -29.8277663765        9.3682058414  W2        6836            0.0000000000
     20507      6836  TIP3      H1            -13.0818687078      -30.2073863765        8.6769658414  W2        6836            0.0000000000
     20508      6836  TIP3      H2            -11.7058887078      -29.6332963765        8.9396158414  W2        6836            0.0000000000
     20509      6837  TIP3      OH2            -2.0022187078      -17.7447063765       24.8593158414  W2        6837            0.0000000000
     20510      6837  TIP3      H1             -1.8023487078      -17.3205163765       24.0248458414  W2        6837            0.0000000000
     20511      6837  TIP3      H2             -1.3468487078      -17.4008863765       25.4663558414  W2        6837            0.0000000000
     20512      6838  TIP3      OH2           -14.4042387078      -25.2705763765       24.4673658414  W2        6838            0.0000000000
     20513      6838  TIP3      H1            -13.6719987078      -25.0159863765       25.0288158414  W2        6838            0.0000000000
     20514      6838  TIP3      H2            -15.1843687078      -25.0660363765       24.9829058414  W2        6838            0.0000000000
     20515      6839  TIP3      OH2            -8.3749487078      -29.8635763765       17.2053358414  W2        6839            0.0000000000
     20516      6839  TIP3      H1             -7.8106087078      -30.4099163765       16.6582958414  W2        6839            0.0000000000
     20517      6839  TIP3      H2             -8.5226087078      -30.3853863765       17.9940958414  W2        6839            0.0000000000
     20518      6840  TIP3      OH2           -13.3729787078      -33.7269663765       13.6238158414  W2        6840            0.0000000000
     20519      6840  TIP3      H1            -13.6900287078      -34.6294363765       13.5883558414  W2        6840            0.0000000000
     20520      6840  TIP3      H2            -12.5915687078      -33.7252263765       13.0709758414  W2        6840            0.0000000000
     20521      6841  TIP3      OH2            -9.7483587078      -31.4749663765       19.6193758414  W2        6841            0.0000000000
     20522      6841  TIP3      H1            -10.5838287078      -31.0210163765       19.7296158414  W2        6841            0.0000000000
     20523      6841  TIP3      H2             -9.2242987078      -31.1991163765       20.3713658414  W2        6841            0.0000000000
     20524      6842  TIP3      OH2            -9.2040987078      -25.2621963765       11.3040158414  W2        6842            0.0000000000
     20525      6842  TIP3      H1             -9.9489987078      -25.7696663765       10.9818058414  W2        6842            0.0000000000
     20526      6842  TIP3      H2             -9.3383787078      -25.2133963765       12.2504958414  W2        6842            0.0000000000
     20527      6843  TIP3      OH2            -2.0542087078      -26.1293763765       20.0907758414  W2        6843            0.0000000000
     20528      6843  TIP3      H1             -1.4123287078      -25.6727463765       19.5469958414  W2        6843            0.0000000000
     20529      6843  TIP3      H2             -2.8845187078      -26.0161363765       19.6281858414  W2        6843            0.0000000000
     20530      6844  TIP3      OH2            -5.3064187078      -32.4482063765        9.5032758414  W2        6844            0.0000000000
     20531      6844  TIP3      H1             -6.2449987078      -32.3366463765        9.3521558414  W2        6844            0.0000000000
     20532      6844  TIP3      H2             -5.0092087078      -31.5915163765        9.8098458414  W2        6844            0.0000000000
     20533      6845  TIP3      OH2            -7.6848887078      -25.0778663765       22.5409258414  W2        6845            0.0000000000
     20534      6845  TIP3      H1             -8.0302787078      -25.4596263765       23.3478858414  W2        6845            0.0000000000
     20535      6845  TIP3      H2             -7.8848787078      -24.1445063765       22.6122158414  W2        6845            0.0000000000
     20536      6846  TIP3      OH2            -4.5880687078      -30.5809363765       11.1640158414  W2        6846            0.0000000000
     20537      6846  TIP3      H1             -3.6961687078      -30.7184363765       11.4831358414  W2        6846            0.0000000000
     20538      6846  TIP3      H2             -4.5317087078      -29.7903263765       10.6273658414  W2        6846            0.0000000000
     20539      6847  TIP3      OH2           -14.0792687078      -25.9671963765       17.0738058414  W2        6847            0.0000000000
     20540      6847  TIP3      H1            -13.3345487078      -25.9696263765       16.4724558414  W2        6847            0.0000000000
     20541      6847  TIP3      H2            -14.0016087078      -26.7908163765       17.5553158414  W2        6847            0.0000000000
     20542      6848  TIP3      OH2            -7.0786887078      -23.8037663765       10.3294758414  W2        6848            0.0000000000
     20543      6848  TIP3      H1             -7.3738487078      -22.9769763765       10.7109558414  W2        6848            0.0000000000
     20544      6848  TIP3      H2             -7.7816887078      -24.4230763765       10.5256158414  W2        6848            0.0000000000
     20545      6849  TIP3      OH2           -17.0712987078      -27.5065063765       22.3886558414  W2        6849            0.0000000000
     20546      6849  TIP3      H1            -16.8484387078      -27.9245463765       23.2204058414  W2        6849            0.0000000000
     20547      6849  TIP3      H2            -17.6732887078      -28.1190063765       21.9659358414  W2        6849            0.0000000000
     20548      6850  TIP3      OH2           -10.0548087078      -27.9895163765       24.6016258414  W2        6850            0.0000000000
     20549      6850  TIP3      H1            -10.3507287078      -28.1552163765       23.7065358414  W2        6850            0.0000000000
     20550      6850  TIP3      H2             -9.1232887078      -28.2094863765       24.5910158414  W2        6850            0.0000000000
     20551      6851  TIP3      OH2            -5.4345287078      -22.6163163765       22.4914258414  W2        6851            0.0000000000
     20552      6851  TIP3      H1             -6.3350987078      -22.4330563765       22.2238158414  W2        6851            0.0000000000
     20553      6851  TIP3      H2             -5.4004187078      -22.3573863765       23.4123058414  W2        6851            0.0000000000
     20554      6852  TIP3      OH2             0.2968012922      -30.3715263765       10.8586858414  W2        6852            0.0000000000
     20555      6852  TIP3      H1             -0.2575687078      -30.7677263765       10.1864358414  W2        6852            0.0000000000
     20556      6852  TIP3      H2              0.3971612922      -29.4610063765       10.5810158414  W2        6852            0.0000000000
     20557      6853  TIP3      OH2             0.2600012922      -24.5713563765       23.6958358414  W2        6853            0.0000000000
     20558      6853  TIP3      H1             -0.5911487078      -24.3329763765       23.3284758414  W2        6853            0.0000000000
     20559      6853  TIP3      H2              0.8503412922      -24.5880363765       22.9425458414  W2        6853            0.0000000000
     20560      6854  TIP3      OH2            -1.4080287078      -21.5854863765       11.3238958414  W2        6854            0.0000000000
     20561      6854  TIP3      H1             -1.7809187078      -22.4111063765       11.6329558414  W2        6854            0.0000000000
     20562      6854  TIP3      H2             -1.1306787078      -21.7685463765       10.4262358414  W2        6854            0.0000000000
     20563      6855  TIP3      OH2            -4.2476387078      -26.7775363765       18.3450858414  W2        6855            0.0000000000
     20564      6855  TIP3      H1             -5.1759487078      -27.0093463765       18.3180158414  W2        6855            0.0000000000
     20565      6855  TIP3      H2             -3.7965287078      -27.5545563765       18.0149658414  W2        6855            0.0000000000
     20566      6856  TIP3      OH2           -11.7043287078      -22.4493763765       14.4779558414  W2        6856            0.0000000000
     20567      6856  TIP3      H1            -11.1771087078      -21.6759363765       14.2778358414  W2        6856            0.0000000000
     20568      6856  TIP3      H2            -12.5844787078      -22.2244563765       14.1763558414  W2        6856            0.0000000000
     20569      6857  TIP3      OH2           -15.9495587078      -27.5869663765        9.0651958414  W2        6857            0.0000000000
     20570      6857  TIP3      H1            -15.3335687078      -26.9602463765        9.4446758414  W2        6857            0.0000000000
     20571      6857  TIP3      H2            -16.8112987078      -27.2709863765        9.3368458414  W2        6857            0.0000000000
     20572      6858  TIP3      OH2           -10.2770987078      -24.7863863765       14.0543858414  W2        6858            0.0000000000
     20573      6858  TIP3      H1            -10.5180987078      -23.8609463765       14.0959158414  W2        6858            0.0000000000
     20574      6858  TIP3      H2            -11.0177387078      -25.2452563765       14.4507758414  W2        6858            0.0000000000
     20575      6859  TIP3      OH2            -9.7624387078      -20.6370263765       20.3694958414  W2        6859            0.0000000000
     20576      6859  TIP3      H1             -9.3999687078      -19.7824663765       20.1359358414  W2        6859            0.0000000000
     20577      6859  TIP3      H2             -9.2309187078      -20.9288663765       21.1101258414  W2        6859            0.0000000000
     20578      6860  TIP3      OH2           -11.5940187078      -19.7646263765       13.5996058414  W2        6860            0.0000000000
     20579      6860  TIP3      H1            -12.5439687078      -19.6588863765       13.6509358414  W2        6860            0.0000000000
     20580      6860  TIP3      H2            -11.2422087078      -18.9438863765       13.9443558414  W2        6860            0.0000000000
     20581      6861  TIP3      OH2            -6.2183587078      -24.5379563765       20.0700558414  W2        6861            0.0000000000
     20582      6861  TIP3      H1             -6.6442287078      -24.7657863765       20.8964558414  W2        6861            0.0000000000
     20583      6861  TIP3      H2             -5.6377787078      -25.2767763765       19.8875858414  W2        6861            0.0000000000
     20584      6862  TIP3      OH2            -4.0154687078      -23.6089063765        9.1439558414  W2        6862            0.0000000000
     20585      6862  TIP3      H1             -3.6621587078      -23.9889263765        9.9483058414  W2        6862            0.0000000000
     20586      6862  TIP3      H2             -4.9641187078      -23.7024263765        9.2308858414  W2        6862            0.0000000000
     20587      6863  TIP3      OH2            -3.5599387078      -19.9860063765       22.5395358414  W2        6863            0.0000000000
     20588      6863  TIP3      H1             -4.1616187078      -20.5417163765       22.0441658414  W2        6863            0.0000000000
     20589      6863  TIP3      H2             -3.2785687078      -19.3190263765       21.9132758414  W2        6863            0.0000000000
     20590      6864  TIP3      OH2             0.4879712922      -19.1296563765        9.3449758414  W2        6864            0.0000000000
     20591      6864  TIP3      H1              1.2317612922      -18.5436063765        9.2051358414  W2        6864            0.0000000000
     20592      6864  TIP3      H2             -0.2062187078      -18.5610763765        9.6782158414  W2        6864            0.0000000000
     20593      6865  TIP3      OH2           -15.4373487078      -32.7532363765       21.9467958414  W2        6865            0.0000000000
     20594      6865  TIP3      H1            -16.3301187078      -32.4146963765       21.8791958414  W2        6865            0.0000000000
     20595      6865  TIP3      H2            -15.5360687078      -33.6086263765       22.3648758414  W2        6865            0.0000000000
     20596      6866  TIP3      OH2            -3.1495387078      -24.9367063765       11.3707458414  W2        6866            0.0000000000
     20597      6866  TIP3      H1             -3.4267787078      -25.6647763765       11.9268558414  W2        6866            0.0000000000
     20598      6866  TIP3      H2             -2.2222387078      -24.8175063765       11.5760058414  W2        6866            0.0000000000
     20599      6867  TIP3      OH2           -15.7861487078      -20.9487963765       20.3817358414  W2        6867            0.0000000000
     20600      6867  TIP3      H1            -15.5691187078      -21.8805563765       20.3507058414  W2        6867            0.0000000000
     20601      6867  TIP3      H2            -15.5397987078      -20.6742963765       21.2650158414  W2        6867            0.0000000000
     20602      6868  TIP3      OH2            -9.9246887078      -22.4972963765        7.5909558414  W2        6868            0.0000000000
     20603      6868  TIP3      H1             -9.6857087078      -23.2454863765        7.0438458414  W2        6868            0.0000000000
     20604      6868  TIP3      H2            -10.1935587078      -22.8851263765        8.4237358414  W2        6868            0.0000000000
     20605      6869  TIP3      OH2           -10.9876287078      -22.9269163765       10.0472158414  W2        6869            0.0000000000
     20606      6869  TIP3      H1            -10.8408287078      -23.4469363765       10.8373058414  W2        6869            0.0000000000
     20607      6869  TIP3      H2            -10.9904587078      -22.0201563765       10.3538058414  W2        6869            0.0000000000
     20608      6870  TIP3      OH2           -14.5345187078      -25.6745863765       10.5577558414  W2        6870            0.0000000000
     20609      6870  TIP3      H1            -15.2205887078      -25.3223363765       11.1247258414  W2        6870            0.0000000000
     20610      6870  TIP3      H2            -14.0117287078      -24.9116263765       10.3111858414  W2        6870            0.0000000000
     20611      6871  TIP3      OH2            -6.7030087078      -33.0122063765       20.8366558414  W2        6871            0.0000000000
     20612      6871  TIP3      H1             -6.0042187078      -32.9383363765       21.4866258414  W2        6871            0.0000000000
     20613      6871  TIP3      H2             -7.0838687078      -33.8767063765       20.9909458414  W2        6871            0.0000000000
     20614      6872  TIP3      OH2            -5.9185187078      -33.3600363765       11.9338858414  W2        6872            0.0000000000
     20615      6872  TIP3      H1             -5.6986887078      -32.8884963765       11.1304258414  W2        6872            0.0000000000
     20616      6872  TIP3      H2             -5.3601187078      -32.9657763765       12.6039458414  W2        6872            0.0000000000
     20617      6873  TIP3      OH2            -8.2499087078      -21.2295563765       10.7966358414  W2        6873            0.0000000000
     20618      6873  TIP3      H1             -9.0662987078      -20.7325863765       10.8490658414  W2        6873            0.0000000000
     20619      6873  TIP3      H2             -7.7202787078      -20.7542063765       10.1565158414  W2        6873            0.0000000000
     20620      6874  TIP3      OH2            -8.7185287078      -31.6321563765       12.7687258414  W2        6874            0.0000000000
     20621      6874  TIP3      H1             -7.9062687078      -31.1278363765       12.8148958414  W2        6874            0.0000000000
     20622      6874  TIP3      H2             -8.9632287078      -31.7771863765       13.6826858414  W2        6874            0.0000000000
     20623      6875  TIP3      OH2            -8.1828887078      -30.6458863765       21.9533858414  W2        6875            0.0000000000
     20624      6875  TIP3      H1             -8.0638587078      -30.0723463765       22.7104258414  W2        6875            0.0000000000
     20625      6875  TIP3      H2             -7.5274287078      -31.3339463765       22.0681658414  W2        6875            0.0000000000
     20626      6876  TIP3      OH2            -7.8348587078      -34.5508563765       13.7068358414  W2        6876            0.0000000000
     20627      6876  TIP3      H1             -8.1815087078      -33.9337963765       14.3512658414  W2        6876            0.0000000000
     20628      6876  TIP3      H2             -7.1761687078      -34.0502863765       13.2253858414  W2        6876            0.0000000000
     20629      6877  TIP3      OH2           -10.9115987078      -20.1858363765       10.7783258414  W2        6877            0.0000000000
     20630      6877  TIP3      H1            -10.7507287078      -19.3860863765       10.2775858414  W2        6877            0.0000000000
     20631      6877  TIP3      H2            -11.1088187078      -19.8792363765       11.6633858414  W2        6877            0.0000000000
     20632      6878  TIP3      OH2           -12.1771587078      -33.4879163765       10.3940858414  W2        6878            0.0000000000
     20633      6878  TIP3      H1            -12.2606787078      -32.5996063765       10.7407258414  W2        6878            0.0000000000
     20634      6878  TIP3      H2            -11.2871287078      -33.7532463765       10.6257658414  W2        6878            0.0000000000
     20635      6879  TIP3      OH2            -1.9783087078      -32.7388563765       22.7883558414  W2        6879            0.0000000000
     20636      6879  TIP3      H1             -2.8947287078      -32.4766863765       22.7007258414  W2        6879            0.0000000000
     20637      6879  TIP3      H2             -1.6428087078      -32.7419563765       21.8918858414  W2        6879            0.0000000000
     20638      6880  TIP3      OH2            -3.3762087078      -28.9887563765       16.8840858414  W2        6880            0.0000000000
     20639      6880  TIP3      H1             -4.1737687078      -29.4037363765       16.5555858414  W2        6880            0.0000000000
     20640      6880  TIP3      H2             -2.9310987078      -29.6793863765       17.3751358414  W2        6880            0.0000000000
     20641      6881  TIP3      OH2           -13.9186287078      -23.0606963765        9.4545358414  W2        6881            0.0000000000
     20642      6881  TIP3      H1            -13.3264787078      -22.3612163765        9.7307758414  W2        6881            0.0000000000
     20643      6881  TIP3      H2            -13.4593287078      -23.4937463765        8.7349958414  W2        6881            0.0000000000
     20644      6882  TIP3      OH2           -15.6027087078      -30.3963963765        8.5704758414  W2        6882            0.0000000000
     20645      6882  TIP3      H1            -15.6474487078      -29.4570863765        8.7491758414  W2        6882            0.0000000000
     20646      6882  TIP3      H2            -16.4903887078      -30.6319063765        8.3006858414  W2        6882            0.0000000000
     20647      6883  TIP3      OH2            -2.2897487078      -19.7325063765       18.5064358414  W2        6883            0.0000000000
     20648      6883  TIP3      H1             -2.4453187078      -19.0540663765       17.8493658414  W2        6883            0.0000000000
     20649      6883  TIP3      H2             -1.3571087078      -19.6605763765       18.7094958414  W2        6883            0.0000000000
     20650      6884  TIP3      OH2           -14.7945087078      -35.6147363765       17.2435758414  W2        6884            0.0000000000
     20651      6884  TIP3      H1            -15.0235287078      -35.5554863765       16.3160758414  W2        6884            0.0000000000
     20652      6884  TIP3      H2            -15.2371687078      -36.4061863765       17.5499858414  W2        6884            0.0000000000
     20653      6885  TIP3      OH2           -15.8641787078      -21.6740263765       13.4041558414  W2        6885            0.0000000000
     20654      6885  TIP3      H1            -16.6963187078      -21.2017563765       13.4312958414  W2        6885            0.0000000000
     20655      6885  TIP3      H2            -15.3183487078      -21.1642663765       12.8054658414  W2        6885            0.0000000000
     20656      6886  TIP3      OH2           -16.5758087078      -19.0616563765       24.7339558414  W2        6886            0.0000000000
     20657      6886  TIP3      H1            -16.0355887078      -19.2782563765       25.4938758414  W2        6886            0.0000000000
     20658      6886  TIP3      H2            -17.0570087078      -19.8670563765       24.5442058414  W2        6886            0.0000000000
     20659      6887  TIP3      OH2           -11.9784687078      -20.1422163765       26.3543758414  W2        6887            0.0000000000
     20660      6887  TIP3      H1            -11.2107487078      -20.6011363765       26.6952958414  W2        6887            0.0000000000
     20661      6887  TIP3      H2            -11.9998487078      -20.3682363765       25.4244958414  W2        6887            0.0000000000
     20662      6888  TIP3      OH2            -7.8865087078      -20.6341563765        7.7295558414  W2        6888            0.0000000000
     20663      6888  TIP3      H1             -8.5304087078      -21.2652963765        8.0509258414  W2        6888            0.0000000000
     20664      6888  TIP3      H2             -7.1246787078      -21.1653563765        7.4979058414  W2        6888            0.0000000000
     20665      6889  TIP3      OH2            -5.4015987078      -21.7621063765       25.0835258414  W2        6889            0.0000000000
     20666      6889  TIP3      H1             -5.7526487078      -22.6188063765       25.3265658414  W2        6889            0.0000000000
     20667      6889  TIP3      H2             -4.6752787078      -21.6194363765       25.6904258414  W2        6889            0.0000000000
     20668      6890  TIP3      OH2            -3.2822187078      -20.8171663765        7.9633558414  W2        6890            0.0000000000
     20669      6890  TIP3      H1             -2.9991787078      -21.6116463765        8.4160458414  W2        6890            0.0000000000
     20670      6890  TIP3      H2             -2.5424287078      -20.5840663765        7.4024658414  W2        6890            0.0000000000
     20671      6891  TIP3      OH2           -16.6688587078      -25.2512463765       25.6883858414  W2        6891            0.0000000000
     20672      6891  TIP3      H1            -16.5248087078      -26.1531763765       25.4020558414  W2        6891            0.0000000000
     20673      6891  TIP3      H2            -17.4411187078      -24.9650363765       25.2006158414  W2        6891            0.0000000000
     20674      6892  TIP3      OH2           -12.3274887078      -24.9076763765        7.8208458414  W2        6892            0.0000000000
     20675      6892  TIP3      H1            -12.2630787078      -25.7017163765        8.3514858414  W2        6892            0.0000000000
     20676      6892  TIP3      H2            -11.6745687078      -25.0263963765        7.1310458414  W2        6892            0.0000000000
     20677      6893  TIP3      OH2           -10.0132487078      -25.2814363765       25.1210258414  W2        6893            0.0000000000
     20678      6893  TIP3      H1            -10.3418687078      -25.0106263765       24.2637658414  W2        6893            0.0000000000
     20679      6893  TIP3      H2             -9.8614287078      -26.2224563765       25.0335258414  W2        6893            0.0000000000
     20680      6894  TIP3      OH2            -6.9751487078      -23.8605063765        7.5566458414  W2        6894            0.0000000000
     20681      6894  TIP3      H1             -7.2437387078      -23.6802963765        8.4575358414  W2        6894            0.0000000000
     20682      6894  TIP3      H2             -7.1815887078      -24.7858863765        7.4252258414  W2        6894            0.0000000000
     20683      6895  TIP3      OH2            -4.2787287078      -25.3657063765       22.5042558414  W2        6895            0.0000000000
     20684      6895  TIP3      H1             -3.5332487078      -24.7773363765       22.3846558414  W2        6895            0.0000000000
     20685      6895  TIP3      H2             -5.0360487078      -24.7837363765       22.5675658414  W2        6895            0.0000000000
     20686      6896  TIP3      OH2           -15.8362087078      -28.0509163765       25.1083158414  W2        6896            0.0000000000
     20687      6896  TIP3      H1            -15.4280887078      -28.9082563765       24.9873758414  W2        6896            0.0000000000
     20688      6896  TIP3      H2            -16.0964487078      -28.0367863765       26.0293458414  W2        6896            0.0000000000
     20689      6897  TIP3      OH2           -11.1781087078      -26.9350563765       10.1266458414  W2        6897            0.0000000000
     20690      6897  TIP3      H1            -11.6379087078      -27.4192263765       10.8124958414  W2        6897            0.0000000000
     20691      6897  TIP3      H2            -10.9232387078      -27.6035163765        9.4906958414  W2        6897            0.0000000000
     20692      6898  TIP3      OH2           -11.8891787078      -29.0423463765       22.4826058414  W2        6898            0.0000000000
     20693      6898  TIP3      H1            -12.5075687078      -28.3676863765       22.7630758414  W2        6898            0.0000000000
     20694      6898  TIP3      H2            -11.5450587078      -28.7209563765       21.6492258414  W2        6898            0.0000000000
     20695      6899  TIP3      OH2           -10.1070687078      -28.6918763765        8.3889658414  W2        6899            0.0000000000
     20696      6899  TIP3      H1            -10.2875687078      -28.8467563765        7.4617958414  W2        6899            0.0000000000
     20697      6899  TIP3      H2             -9.1570187078      -28.5840063765        8.4337558414  W2        6899            0.0000000000
     20698      6900  TIP3      OH2            -6.8693587078      -26.5708163765       25.7600858414  W2        6900            0.0000000000
     20699      6900  TIP3      H1             -5.9162387078      -26.4869063765       25.7326858414  W2        6900            0.0000000000
     20700      6900  TIP3      H2             -7.0298987078      -27.2826363765       26.3795758414  W2        6900            0.0000000000
     20701      6901  TIP3      OH2            -0.7172387078      -26.3374563765        7.8347758414  W2        6901            0.0000000000
     20702      6901  TIP3      H1             -0.9907587078      -26.7619063765        7.0216058414  W2        6901            0.0000000000
     20703      6901  TIP3      H2             -0.6778287078      -25.4060063765        7.6178158414  W2        6901            0.0000000000
     20704      6902  TIP3      OH2           -11.5498087078      -31.6872663765       23.5649158414  W2        6902            0.0000000000
     20705      6902  TIP3      H1            -11.3997187078      -32.4161363765       22.9628858414  W2        6902            0.0000000000
     20706      6902  TIP3      H2            -11.5475687078      -30.9100963765       23.0061358414  W2        6902            0.0000000000
     20707      6903  TIP3      OH2           -11.1372387078      -33.3176863765       21.0576558414  W2        6903            0.0000000000
     20708      6903  TIP3      H1            -10.6014887078      -32.8660163765       20.4055858414  W2        6903            0.0000000000
     20709      6903  TIP3      H2            -11.9892787078      -33.4257063765       20.6350658414  W2        6903            0.0000000000
     20710      6904  TIP3      OH2            -9.5553987078      -27.8780663765       21.2971758414  W2        6904            0.0000000000
     20711      6904  TIP3      H1             -8.8049187078      -28.0343163765       20.7239558414  W2        6904            0.0000000000
     20712      6904  TIP3      H2             -9.8945687078      -27.0264063765       21.0217258414  W2        6904            0.0000000000
     20713      6905  TIP3      OH2            -5.1397787078      -30.0628863765       26.3257058414  W2        6905            0.0000000000
     20714      6905  TIP3      H1             -4.9476487078      -30.9939463765       26.2141558414  W2        6905            0.0000000000
     20715      6905  TIP3      H2             -4.2821487078      -29.6379363765       26.3152458414  W2        6905            0.0000000000
     20716      6906  TIP3      OH2            -3.8230587078      -27.2743663765       24.4029758414  W2        6906            0.0000000000
     20717      6906  TIP3      H1             -4.1045587078      -26.5649063765       23.8253558414  W2        6906            0.0000000000
     20718      6906  TIP3      H2             -2.8806287078      -27.3470663765       24.2520958414  W2        6906            0.0000000000
     20719      6907  TIP3      OH2           -13.0711787078      -30.4889163765       25.4764758414  W2        6907            0.0000000000
     20720      6907  TIP3      H1            -13.8382787078      -31.0214363765       25.2662358414  W2        6907            0.0000000000
     20721      6907  TIP3      H2            -12.3922787078      -30.7988763765       24.8771058414  W2        6907            0.0000000000
     20722      6908  TIP3      OH2           -10.3316887078      -35.8611163765       21.4890158414  W2        6908            0.0000000000
     20723      6908  TIP3      H1            -10.4297287078      -34.9147963765       21.3836358414  W2        6908            0.0000000000
     20724      6908  TIP3      H2            -11.0740687078      -36.2337363765       21.0133658414  W2        6908            0.0000000000
     20725      6909  TIP3      OH2            -9.0676387078      -31.5395763765       25.0528558414  W2        6909            0.0000000000
     20726      6909  TIP3      H1             -9.3030987078      -31.7589063765       25.9543458414  W2        6909            0.0000000000
     20727      6909  TIP3      H2             -9.8509487078      -31.7464563765       24.5431058414  W2        6909            0.0000000000
     20728      6910  TIP3      OH2            -6.3519787078      -32.4122263765       24.1282058414  W2        6910            0.0000000000
     20729      6910  TIP3      H1             -7.2994387078      -32.3802563765       24.2605358414  W2        6910            0.0000000000
     20730      6910  TIP3      H2             -6.0393087078      -33.0375163765       24.7820258414  W2        6910            0.0000000000
     20731      6911  TIP3      OH2            -4.7178287078      -33.7781163765       26.1333958414  W2        6911            0.0000000000
     20732      6911  TIP3      H1             -4.8146487078      -34.7303863765       26.1275858414  W2        6911            0.0000000000
     20733      6911  TIP3      H2             -5.0395187078      -33.5094363765       26.9939458414  W2        6911            0.0000000000
     20734      6912  TIP3      OH2           -14.8908987078      -32.5685363765       25.1809458414  W2        6912            0.0000000000
     20735      6912  TIP3      H1            -14.6791587078      -33.2749263765       24.5706958414  W2        6912            0.0000000000
     20736      6912  TIP3      H2            -15.0021487078      -33.0059363765       26.0250658414  W2        6912            0.0000000000
     20737      6913  TIP3      OH2           -10.1098787078      -36.5673763765       24.1602958414  W2        6913            0.0000000000
     20738      6913  TIP3      H1             -9.3980387078      -37.2071563765       24.1462058414  W2        6913            0.0000000000
     20739      6913  TIP3      H2            -10.2108387078      -36.3005463765       23.2466058414  W2        6913            0.0000000000
     20740      6914  TIP3      OH2            -9.7561287078      -34.8845363765       26.2139258414  W2        6914            0.0000000000
     20741      6914  TIP3      H1             -9.8879087078      -35.3601563765       25.3937758414  W2        6914            0.0000000000
     20742      6914  TIP3      H2            -10.3553887078      -34.1401763765       26.1586358414  W2        6914            0.0000000000
     20743      6915  TIP3      OH2           -10.2098987078      -18.0015063765        9.3903258414  W2        6915            0.0000000000
     20744      6915  TIP3      H1             -9.2768287078      -17.8436363765        9.5341658414  W2        6915            0.0000000000
     20745      6915  TIP3      H2            -10.4740187078      -17.3262063765        8.7654758414  W2        6915            0.0000000000
     20746      6916  TIP3      OH2           -16.6414087078      -23.3651263765        8.8731358414  W2        6916            0.0000000000
     20747      6916  TIP3      H1            -15.7274887078      -23.2862363765        9.1465258414  W2        6916            0.0000000000
     20748      6916  TIP3      H2            -16.6340987078      -24.0521663765        8.2066958414  W2        6916            0.0000000000
     20749      6917  TIP3      OH2           -17.9923487078      -17.9722763765       13.9505258414  W2        6917            0.0000000000
     20750      6917  TIP3      H1            -18.6396387078      -18.4341063765       13.4176458414  W2        6917            0.0000000000
     20751      6917  TIP3      H2            -17.6378887078      -18.6439463765       14.5331458414  W2        6917            0.0000000000
     20752      6918  TIP3      OH2           -17.1224287078      -19.8915763765       15.7551458414  W2        6918            0.0000000000
     20753      6918  TIP3      H1            -17.4567487078      -20.7718463765       15.9271658414  W2        6918            0.0000000000
     20754      6918  TIP3      H2            -16.9001887078      -19.5460763765       16.6197058414  W2        6918            0.0000000000
     20755      6919  TIP3      OH2             0.4260512922      -19.0819363765       18.7356258414  W2        6919            0.0000000000
     20756      6919  TIP3      H1              0.4047212922      -18.8970963765       19.6745658414  W2        6919            0.0000000000
     20757      6919  TIP3      H2              1.1166712922      -18.5135363765       18.3947658414  W2        6919            0.0000000000
     20758      6920  TIP3      OH2            -0.0106587078      -19.5148263765       21.6575358414  W2        6920            0.0000000000
     20759      6920  TIP3      H1             -0.4977887078      -20.2504163765       21.2862758414  W2        6920            0.0000000000
     20760      6920  TIP3      H2              0.5386112922      -19.9084363765       22.3354758414  W2        6920            0.0000000000
     20761      6921  TIP3      OH2            -1.5599287078      -23.7250163765       26.2955658414  W2        6921            0.0000000000
     20762      6921  TIP3      H1             -2.4258187078      -23.8300463765       26.6897958414  W2        6921            0.0000000000
     20763      6921  TIP3      H2             -1.1833387078      -22.9666863765       26.7420358414  W2        6921            0.0000000000
     20764      6922  TIP3      OH2            -0.2589587078      -25.4686463765       11.8098158414  W2        6922            0.0000000000
     20765      6922  TIP3      H1              0.5911812922      -25.0475563765       11.9369758414  W2        6922            0.0000000000
     20766      6922  TIP3      H2             -0.2534487078      -26.2086363765       12.4169558414  W2        6922            0.0000000000
     20767      6923  TIP3      OH2             0.1356012922      -27.4149063765       13.6333858414  W2        6923            0.0000000000
     20768      6923  TIP3      H1             -0.5909387078      -27.8946463765       14.0311458414  W2        6923            0.0000000000
     20769      6923  TIP3      H2              0.7169312922      -27.2094363765       14.3655458414  W2        6923            0.0000000000
     20770      6924  TIP3      OH2            -0.1052787078      -24.6301563765       18.5811458414  W2        6924            0.0000000000
     20771      6924  TIP3      H1              0.7281412922      -25.0081563765       18.3005058414  W2        6924            0.0000000000
     20772      6924  TIP3      H2              0.0067512922      -23.6870363765       18.4620558414  W2        6924            0.0000000000
     20773      6925  TIP3      OH2            -1.6190487078      -21.7524063765       20.8879858414  W2        6925            0.0000000000
     20774      6925  TIP3      H1             -2.2665187078      -21.4272563765       21.5135058414  W2        6925            0.0000000000
     20775      6925  TIP3      H2             -2.1366487078      -22.1926363765       20.2138158414  W2        6925            0.0000000000
     20776      6926  TIP3      OH2             0.4039112922      -27.5140563765       10.0245158414  W2        6926            0.0000000000
     20777      6926  TIP3      H1             -0.1179787078      -27.1576463765        9.3056058414  W2        6926            0.0000000000
     20778      6926  TIP3      H2              0.3708312922      -26.8392763765       10.7026058414  W2        6926            0.0000000000
     20779      6927  TIP3      OH2            -1.2471887078      -30.2744963765        8.5752258414  W2        6927            0.0000000000
     20780      6927  TIP3      H1             -1.1507487078      -29.6077963765        7.8951958414  W2        6927            0.0000000000
     20781      6927  TIP3      H2             -1.3872287078      -31.0898663765        8.0937758414  W2        6927            0.0000000000
     20782      6928  TIP3      OH2            -2.0777187078      -28.8942563765       14.1962558414  W2        6928            0.0000000000
     20783      6928  TIP3      H1             -2.2278387078      -29.8393963765       14.1760358414  W2        6928            0.0000000000
     20784      6928  TIP3      H2             -2.4312687078      -28.6131163765       15.0401658414  W2        6928            0.0000000000
     20785      6929  TIP3      OH2           -17.0424787078      -26.8160363765       18.2066358414  W2        6929            0.0000000000
     20786      6929  TIP3      H1            -16.8581887078      -26.8978663765       17.2709258414  W2        6929            0.0000000000
     20787      6929  TIP3      H2            -16.1931887078      -26.9403363765       18.6302758414  W2        6929            0.0000000000
     20788      6930  TIP3      OH2            -1.2214287078      -26.9239263765       23.8350858414  W2        6930            0.0000000000
     20789      6930  TIP3      H1             -0.6386987078      -27.6586963765       24.0268058414  W2        6930            0.0000000000
     20790      6930  TIP3      H2             -0.6574987078      -26.1518963765       23.8816658414  W2        6930            0.0000000000
     20791      6931  TIP3      OH2             0.2752812922      -29.0213463765       24.5196258414  W2        6931            0.0000000000
     20792      6931  TIP3      H1             -0.5880487078      -29.4001363765       24.3540958414  W2        6931            0.0000000000
     20793      6931  TIP3      H2              0.8796512922      -29.7598663765       24.4452058414  W2        6931            0.0000000000
     20794      6932  TIP3      OH2            -1.9998087078      -32.8665163765        7.6927758414  W2        6932            0.0000000000
     20795      6932  TIP3      H1             -1.3892287078      -33.2378363765        8.3295958414  W2        6932            0.0000000000
     20796      6932  TIP3      H2             -2.8366587078      -33.2878263765        7.8887758414  W2        6932            0.0000000000
     20797      6933  TIP3      OH2            -2.3672387078      -31.3116763765       12.6587658414  W2        6933            0.0000000000
     20798      6933  TIP3      H1             -2.0875287078      -32.2186363765       12.7829358414  W2        6933            0.0000000000
     20799      6933  TIP3      H2             -1.6080687078      -30.8775263765       12.2696858414  W2        6933            0.0000000000
     20800      6934  TIP3      OH2            -1.7554087078      -30.7299363765       18.0946558414  W2        6934            0.0000000000
     20801      6934  TIP3      H1             -0.8226087078      -30.5179463765       18.0602558414  W2        6934            0.0000000000
     20802      6934  TIP3      H2             -1.9906587078      -30.6287263765       19.0169558414  W2        6934            0.0000000000
     20803      6935  TIP3      OH2            -1.7262187078      -29.9934063765       20.8705958414  W2        6935            0.0000000000
     20804      6935  TIP3      H1             -2.5690887078      -29.7253663765       21.2365758414  W2        6935            0.0000000000
     20805      6935  TIP3      H2             -1.2837887078      -29.1712163765       20.6597058414  W2        6935            0.0000000000
     20806      6936  TIP3      OH2           -17.4449987078      -31.5455363765       24.3475158414  W2        6936            0.0000000000
     20807      6936  TIP3      H1            -16.5255087078      -31.6677063765       24.5838258414  W2        6936            0.0000000000
     20808      6936  TIP3      H2            -17.8945487078      -32.2955663765       24.7368658414  W2        6936            0.0000000000
     20809      6937  TIP3      OH2             0.5569412922      -36.0133863765       26.2240958414  W2        6937            0.0000000000
     20810      6937  TIP3      H1              0.9066412922      -36.6670363765       25.6185658414  W2        6937            0.0000000000
     20811      6937  TIP3      H2              0.7038912922      -35.1759763765       25.7843558414  W2        6937            0.0000000000
     20812      6938  TIP3      OH2            -1.7537587078      -34.0487463765       12.7069658414  W2        6938            0.0000000000
     20813      6938  TIP3      H1             -1.5712587078      -34.4975963765       13.5324658414  W2        6938            0.0000000000
     20814      6938  TIP3      H2             -2.3534687078      -34.6333063765       12.2434258414  W2        6938            0.0000000000
     20815      6939  TIP3      OH2           -16.2237487078      -33.2333763765       17.2388058414  W2        6939            0.0000000000
     20816      6939  TIP3      H1            -15.7785887078      -34.0251263765       17.5407758414  W2        6939            0.0000000000
     20817      6939  TIP3      H2            -15.7574487078      -32.5168563765       17.6693658414  W2        6939            0.0000000000
     20818      6940  TIP3      OH2           -17.9197187078      -30.2340763765       18.3078258414  W2        6940            0.0000000000
     20819      6940  TIP3      H1            -17.4277387078      -30.4550263765       17.5170258414  W2        6940            0.0000000000
     20820      6940  TIP3      H2            -17.5576287078      -29.3937363765       18.5887758414  W2        6940            0.0000000000
     20821      6941  TIP3      OH2             0.0766612922      -33.9039263765       24.5732258414  W2        6941            0.0000000000
     20822      6941  TIP3      H1             -0.8407687078      -33.6332163765       24.5375758414  W2        6941            0.0000000000
     20823      6941  TIP3      H2              0.1996012922      -34.4390863765       23.7891958414  W2        6941            0.0000000000
     20824      6942  TIP3      OH2             0.1128612922      -33.9809363765        9.2349958414  W2        6942            0.0000000000
     20825      6942  TIP3      H1              0.5251212922      -34.7023663765        8.7597958414  W2        6942            0.0000000000
     20826      6942  TIP3      H2              0.7945112922      -33.3114763765        9.2934258414  W2        6942            0.0000000000
     20827      6943  TIP3      OH2           -17.6060687078      -33.9761663765       12.3620658414  W2        6943            0.0000000000
     20828      6943  TIP3      H1            -18.5312287078      -33.7675063765       12.2326158414  W2        6943            0.0000000000
     20829      6943  TIP3      H2            -17.1520787078      -33.4920863765       11.6722958414  W2        6943            0.0000000000
     20830      6944  TIP3      OH2            -2.8353487078      -18.9919963765       14.3078058414  W2        6944            0.0000000000
     20831      6944  TIP3      H1             -2.1830587078      -19.3397863765       13.6997158414  W2        6944            0.0000000000
     20832      6944  TIP3      H2             -2.3249687078      -18.5036763765       14.9537758414  W2        6944            0.0000000000
     20833      6945  TIP3      OH2           -17.6425287078      -35.2382663765       20.7063158414  W2        6945            0.0000000000
     20834      6945  TIP3      H1            -18.3074787078      -35.4842363765       21.3494058414  W2        6945            0.0000000000
     20835      6945  TIP3      H2            -18.0853987078      -34.6162263765       20.1291158414  W2        6945            0.0000000000
     20836      6946  TIP3      OH2           -15.4505987078      -22.0628563765       24.8508958414  W2        6946            0.0000000000
     20837      6946  TIP3      H1            -16.2713487078      -21.8882063765       24.3903658414  W2        6946            0.0000000000
     20838      6946  TIP3      H2            -15.7028187078      -22.1363863765       25.7713358414  W2        6946            0.0000000000
     20839      6947  TIP3      OH2           -12.4963087078      -21.0887363765       21.1092958414  W2        6947            0.0000000000
     20840      6947  TIP3      H1            -12.9211987078      -20.2788863765       20.8267558414  W2        6947            0.0000000000
     20841      6947  TIP3      H2            -11.5920287078      -21.0033263765       20.8072758414  W2        6947            0.0000000000
     20842      6948  TIP3      OH2            -8.1851687078      -19.6897363765       24.0686658414  W2        6948            0.0000000000
     20843      6948  TIP3      H1             -8.0004187078      -20.0231263765       24.9466958414  W2        6948            0.0000000000
     20844      6948  TIP3      H2             -7.3387187078      -19.3798763765       23.7465858414  W2        6948            0.0000000000
     20845      6949  TIP3      OH2            -5.8401287078      -18.4038463765       23.3128058414  W2        6949            0.0000000000
     20846      6949  TIP3      H1             -5.1632387078      -19.0366163765       23.0727258414  W2        6949            0.0000000000
     20847      6949  TIP3      H2             -5.5182487078      -18.0027963765       24.1201358414  W2        6949            0.0000000000
     20848      6950  TIP3      OH2            -0.9227487078      -35.8142963765       22.3923058414  W2        6950            0.0000000000
     20849      6950  TIP3      H1             -1.7353987078      -35.4892663765       22.0047758414  W2        6950            0.0000000000
     20850      6950  TIP3      H2             -0.6898987078      -36.5744463765       21.8592158414  W2        6950            0.0000000000
     20851      6951  TIP3      OH2           -15.0946387078      -17.8323463765       21.1568258414  W2        6951            0.0000000000
     20852      6951  TIP3      H1            -15.8149987078      -17.3922463765       20.7055958414  W2        6951            0.0000000000
     20853      6951  TIP3      H2            -15.4602387078      -18.0828763765       22.0052258414  W2        6951            0.0000000000
     20854      6952  TIP3      OH2           -12.6273787078      -18.2319563765       20.1865458414  W2        6952            0.0000000000
     20855      6952  TIP3      H1            -13.4921587078      -18.1601063765       20.5905558414  W2        6952            0.0000000000
     20856      6952  TIP3      H2            -12.6824787078      -17.6852263765       19.4027958414  W2        6952            0.0000000000
     20857      6953  TIP3      OH2            -7.9168187078      -18.3440663765       19.3621458414  W2        6953            0.0000000000
     20858      6953  TIP3      H1             -8.3734187078      -17.8150963765       18.7079858414  W2        6953            0.0000000000
     20859      6953  TIP3      H2             -7.7540187078      -17.7409263765       20.0873758414  W2        6953            0.0000000000
     20860      6954  TIP3      OH2            -5.5891887078      -19.4661063765       20.3071758414  W2        6954            0.0000000000
     20861      6954  TIP3      H1             -6.4938187078      -19.3010863765       20.0413858414  W2        6954            0.0000000000
     20862      6954  TIP3      H2             -5.1603287078      -18.6128863765       20.2415158414  W2        6954            0.0000000000
     20863      6955  TIP3      OH2            -2.9849987078      -17.8961963765       20.6019558414  W2        6955            0.0000000000
     20864      6955  TIP3      H1             -3.1667987078      -16.9803063765       20.3914458414  W2        6955            0.0000000000
     20865      6955  TIP3      H2             -2.8082187078      -18.3064863765       19.7554158414  W2        6955            0.0000000000
     20866      6956  TIP3      OH2           -15.6798287078      -19.2090963765       18.0670058414  W2        6956            0.0000000000
     20867      6956  TIP3      H1            -15.6982287078      -19.6345863765       18.9242358414  W2        6956            0.0000000000
     20868      6956  TIP3      H2            -14.8750387078      -19.5275963765       17.6582258414  W2        6956            0.0000000000
     20869      6957  TIP3      OH2           -13.5385187078      -20.4992263765       16.7219958414  W2        6957            0.0000000000
     20870      6957  TIP3      H1            -13.7574487078      -21.4154863765       16.8915958414  W2        6957            0.0000000000
     20871      6957  TIP3      H2            -12.7142987078      -20.3591863765       17.1881358414  W2        6957            0.0000000000
     20872      6958  TIP3      OH2           -11.0012687078      -20.0292963765       17.5707958414  W2        6958            0.0000000000
     20873      6958  TIP3      H1            -10.7886987078      -20.9173963765       17.2838858414  W2        6958            0.0000000000
     20874      6958  TIP3      H2            -10.9367587078      -20.0635263765       18.5251958414  W2        6958            0.0000000000
     20875      6959  TIP3      OH2            -7.4928987078      -34.3652363765       16.7151258414  W2        6959            0.0000000000
     20876      6959  TIP3      H1             -8.1672187078      -34.9946763765       16.9707058414  W2        6959            0.0000000000
     20877      6959  TIP3      H2             -6.9289787078      -34.8493463765       16.1119158414  W2        6959            0.0000000000
     20878      6960  TIP3      OH2            -2.3501787078      -36.2578363765       16.8278358414  W2        6960            0.0000000000
     20879      6960  TIP3      H1             -1.7464187078      -35.7102963765       16.3259358414  W2        6960            0.0000000000
     20880      6960  TIP3      H2             -3.2199787078      -35.9387963765       16.5872458414  W2        6960            0.0000000000
     20881      6961  TIP3      OH2            -0.6231387078      -35.1189663765       15.1609258414  W2        6961            0.0000000000
     20882      6961  TIP3      H1             -0.0113887078      -35.6333963765       14.6342858414  W2        6961            0.0000000000
     20883      6961  TIP3      H2             -0.2407987078      -34.2417563765       15.1843658414  W2        6961            0.0000000000
     20884      6962  TIP3      OH2           -15.1661487078      -35.7312063765       14.5371158414  W2        6962            0.0000000000
     20885      6962  TIP3      H1            -15.9431687078      -35.9657163765       14.0297058414  W2        6962            0.0000000000
     20886      6962  TIP3      H2            -14.6357887078      -36.5279963765       14.5459158414  W2        6962            0.0000000000
     20887      6963  TIP3      OH2           -16.3298087078      -35.9333963765       10.3407258414  W2        6963            0.0000000000
     20888      6963  TIP3      H1            -15.8907387078      -35.3223463765        9.7490758414  W2        6963            0.0000000000
     20889      6963  TIP3      H2            -16.9635687078      -35.3949863765       10.8147258414  W2        6963            0.0000000000
     20890      6964  TIP3      OH2           -10.5868887078      -35.8044963765       14.3504258414  W2        6964            0.0000000000
     20891      6964  TIP3      H1             -9.7125487078      -35.4160663765       14.3208558414  W2        6964            0.0000000000
     20892      6964  TIP3      H2            -10.7228087078      -36.0197163765       15.2731458414  W2        6964            0.0000000000
     20893      6965  TIP3      OH2            -5.0300487078      -35.7745163765       15.9995958414  W2        6965            0.0000000000
     20894      6965  TIP3      H1             -4.9538887078      -35.6793563765       15.0501958414  W2        6965            0.0000000000
     20895      6965  TIP3      H2             -5.3051287078      -36.6822263765       16.1285058414  W2        6965            0.0000000000
     20896      6966  TIP3      OH2            -3.6767887078      -35.7487363765       11.6920958414  W2        6966            0.0000000000
     20897      6966  TIP3      H1             -4.3796787078      -35.1338163765       11.4822358414  W2        6966            0.0000000000
     20898      6966  TIP3      H2             -4.1216487078      -36.5860663765       11.8231858414  W2        6966            0.0000000000
     20899      6967  TIP3      OH2           -16.4288587078      -19.9851763765       11.2382358414  W2        6967            0.0000000000
     20900      6967  TIP3      H1            -17.1138687078      -20.0232863765       10.5707458414  W2        6967            0.0000000000
     20901      6967  TIP3      H2            -16.4251387078      -19.0724163765       11.5264458414  W2        6967            0.0000000000
     20902      6968  TIP3      OH2           -14.4688987078      -34.0172463765        8.7831358414  W2        6968            0.0000000000
     20903      6968  TIP3      H1            -13.9775587078      -34.6470063765        8.2556858414  W2        6968            0.0000000000
     20904      6968  TIP3      H2            -13.8452687078      -33.7213063765        9.4462558414  W2        6968            0.0000000000
     20905      6969  TIP3      OH2            -9.4428887078      -33.7240963765       11.2401858414  W2        6969            0.0000000000
     20906      6969  TIP3      H1             -9.2647587078      -34.3707763765       11.9230458414  W2        6969            0.0000000000
     20907      6969  TIP3      H2             -9.4962687078      -32.8903263765       11.7072958414  W2        6969            0.0000000000
     20908      6970  TIP3      OH2            -7.5645087078      -18.7756863765        9.6358558414  W2        6970            0.0000000000
     20909      6970  TIP3      H1             -6.6984887078      -18.4089463765        9.4576758414  W2        6970            0.0000000000
     20910      6970  TIP3      H2             -7.8112287078      -19.2148863765        8.8219358414  W2        6970            0.0000000000
     20911      6971  TIP3      OH2            -0.8555487078      -19.2126563765       12.3149658414  W2        6971            0.0000000000
     20912      6971  TIP3      H1             -1.0498387078      -19.9604463765       11.7499258414  W2        6971            0.0000000000
     20913      6971  TIP3      H2             -0.8945387078      -18.4546463765       11.7317558414  W2        6971            0.0000000000
     20914      6972  TIP3      OH2           -15.2083487078      -35.2170163765       24.0547358414  W2        6972            0.0000000000
     20915      6972  TIP3      H1            -15.5745287078      -35.9827563765       24.4972058414  W2        6972            0.0000000000
     20916      6972  TIP3      H2            -14.2954987078      -35.1879963765       24.3412458414  W2        6972            0.0000000000
     20917      6973  TIP3      OH2           -13.2352687078      -35.8665763765       25.5904458414  W2        6973            0.0000000000
     20918      6973  TIP3      H1            -12.3369087078      -36.1405563765       25.4057858414  W2        6973            0.0000000000
     20919      6973  TIP3      H2            -13.6219587078      -36.6089763765       26.0547058414  W2        6973            0.0000000000
     20920      6974  TIP3      OH2           -14.6107387078      -19.0650963765        8.2634458414  W2        6974            0.0000000000
     20921      6974  TIP3      H1            -14.8782787078      -18.7788063765        9.1367558414  W2        6974            0.0000000000
     20922      6974  TIP3      H2            -13.8394787078      -19.6111763765        8.4156958414  W2        6974            0.0000000000
     20923      6975  TIP3      OH2            -4.8140387078      -36.5340463765       25.7727258414  W2        6975            0.0000000000
     20924      6975  TIP3      H1             -4.7373187078      -36.9599763765       26.6264958414  W2        6975            0.0000000000
     20925      6975  TIP3      H2             -3.9203787078      -36.5205763765       25.4300758414  W2        6975            0.0000000000
     20926      6976  TIP3      OH2            -1.6379287078      -20.4614163765       24.4651458414  W2        6976            0.0000000000
     20927      6976  TIP3      H1             -2.4197387078      -20.6476163765       23.9452058414  W2        6976            0.0000000000
     20928      6976  TIP3      H2             -1.7099387078      -19.5319863765       24.6823958414  W2        6976            0.0000000000
     20929      6977  TIP3      OH2            12.7681112922      -26.5749763765       14.4958658414  W2        6977            0.0000000000
     20930      6977  TIP3      H1             12.8572212922      -25.6311563765       14.3635758414  W2        6977            0.0000000000
     20931      6977  TIP3      H2             12.1298712922      -26.8503363765       13.8378058414  W2        6977            0.0000000000
     20932      6978  TIP3      OH2            11.7012412922      -27.3199063765       17.9146858414  W2        6978            0.0000000000
     20933      6978  TIP3      H1             11.6629912922      -27.9662763765       18.6196458414  W2        6978            0.0000000000
     20934      6978  TIP3      H2             11.3788912922      -27.7864663765       17.1435558414  W2        6978            0.0000000000
     20935      6979  TIP3      OH2             4.0697412922      -27.7056963765       19.5076758414  W2        6979            0.0000000000
     20936      6979  TIP3      H1              4.1109512922      -28.3313663765       20.2309158414  W2        6979            0.0000000000
     20937      6979  TIP3      H2              4.7725112922      -27.0818363765       19.6897158414  W2        6979            0.0000000000
     20938      6980  TIP3      OH2            15.4072612922      -24.3808663765       16.2161958414  W2        6980            0.0000000000
     20939      6980  TIP3      H1             14.9665312922      -25.1012663765       16.6667558414  W2        6980            0.0000000000
     20940      6980  TIP3      H2             15.3942312922      -23.6601463765       16.8459658414  W2        6980            0.0000000000
     20941      6981  TIP3      OH2             4.9930512922      -23.2558063765       18.0425858414  W2        6981            0.0000000000
     20942      6981  TIP3      H1              4.6235712922      -24.0577563765       17.6730158414  W2        6981            0.0000000000
     20943      6981  TIP3      H2              5.9341612922      -23.4243163765       18.0889258414  W2        6981            0.0000000000
     20944      6982  TIP3      OH2             1.6031012922      -29.5955463765       13.4354658414  W2        6982            0.0000000000
     20945      6982  TIP3      H1              1.1554412922      -28.7496763765       13.4171158414  W2        6982            0.0000000000
     20946      6982  TIP3      H2              1.0422212922      -30.1751263765       12.9199758414  W2        6982            0.0000000000
     20947      6983  TIP3      OH2             2.3137112922      -27.4335863765       15.5612658414  W2        6983            0.0000000000
     20948      6983  TIP3      H1              2.5270612922      -28.2034263765       16.0885658414  W2        6983            0.0000000000
     20949      6983  TIP3      H2              3.0514712922      -27.3439163765       14.9580258414  W2        6983            0.0000000000
     20950      6984  TIP3      OH2            12.5188112922      -19.2766963765       16.4282358414  W2        6984            0.0000000000
     20951      6984  TIP3      H1             13.1384512922      -19.9532263765       16.1551558414  W2        6984            0.0000000000
     20952      6984  TIP3      H2             12.3105512922      -19.4946163765       17.3367258414  W2        6984            0.0000000000
     20953      6985  TIP3      OH2            10.0906812922      -24.8877663765       18.3207858414  W2        6985            0.0000000000
     20954      6985  TIP3      H1             10.3944712922      -25.5736263765       17.7261958414  W2        6985            0.0000000000
     20955      6985  TIP3      H2             10.8120812922      -24.7688963765       18.9385858414  W2        6985            0.0000000000
     20956      6986  TIP3      OH2            18.7536612922      -33.2862363765       19.1814058414  W2        6986            0.0000000000
     20957      6986  TIP3      H1             18.8028812922      -32.6761163765       19.9173158414  W2        6986            0.0000000000
     20958      6986  TIP3      H2             19.1791712922      -32.8251463765       18.4585158414  W2        6986            0.0000000000
     20959      6987  TIP3      OH2            13.2313812922      -30.4935263765       18.6482658414  W2        6987            0.0000000000
     20960      6987  TIP3      H1             13.3739712922      -31.4398263765       18.6684258414  W2        6987            0.0000000000
     20961      6987  TIP3      H2             13.1252812922      -30.2865463765       17.7197558414  W2        6987            0.0000000000
     20962      6988  TIP3      OH2             6.3862112922      -32.3918863765       15.9207458414  W2        6988            0.0000000000
     20963      6988  TIP3      H1              6.4293212922      -31.5320363765       15.5023758414  W2        6988            0.0000000000
     20964      6988  TIP3      H2              5.9286212922      -32.9444163765       15.2870658414  W2        6988            0.0000000000
     20965      6989  TIP3      OH2            14.1084812922      -32.2613263765       14.3215758414  W2        6989            0.0000000000
     20966      6989  TIP3      H1             14.7549112922      -32.5900063765       14.9463358414  W2        6989            0.0000000000
     20967      6989  TIP3      H2             14.6184212922      -31.7434263765       13.6987158414  W2        6989            0.0000000000
     20968      6990  TIP3      OH2             3.0063612922      -29.9953063765       16.6828858414  W2        6990            0.0000000000
     20969      6990  TIP3      H1              3.6600212922      -30.5451363765       17.1148958414  W2        6990            0.0000000000
     20970      6990  TIP3      H2              3.0302912922      -30.2694063765       15.7660858414  W2        6990            0.0000000000
     20971      6991  TIP3      OH2             8.1628112922      -28.4451763765       15.8980358414  W2        6991            0.0000000000
     20972      6991  TIP3      H1              8.7789112922      -28.9716363765       16.4074358414  W2        6991            0.0000000000
     20973      6991  TIP3      H2              7.5766912922      -29.0853063765       15.4943958414  W2        6991            0.0000000000
     20974      6992  TIP3      OH2            19.1451212922      -31.8083163765       21.4173858414  W2        6992            0.0000000000
     20975      6992  TIP3      H1             18.4565812922      -31.1502463765       21.3220458414  W2        6992            0.0000000000
     20976      6992  TIP3      H2             19.1605812922      -32.0055263765       22.3539258414  W2        6992            0.0000000000
     20977      6993  TIP3      OH2             5.1964012922      -33.4740463765       19.9948258414  W2        6993            0.0000000000
     20978      6993  TIP3      H1              4.9775712922      -32.9439863765       19.2284258414  W2        6993            0.0000000000
     20979      6993  TIP3      H2              4.5284912922      -33.2474963765       20.6419658414  W2        6993            0.0000000000
     20980      6994  TIP3      OH2            12.5653812922      -23.9739363765       13.5387358414  W2        6994            0.0000000000
     20981      6994  TIP3      H1             12.2698912922      -24.2967063765       12.6874258414  W2        6994            0.0000000000
     20982      6994  TIP3      H2             12.2411612922      -23.0742663765       13.5799958414  W2        6994            0.0000000000
     20983      6995  TIP3      OH2             7.7655412922      -25.7984763765       20.2821958414  W2        6995            0.0000000000
     20984      6995  TIP3      H1              7.0254512922      -25.2003263765       20.3857158414  W2        6995            0.0000000000
     20985      6995  TIP3      H2              8.4794912922      -25.2445163765       19.9665558414  W2        6995            0.0000000000
     20986      6996  TIP3      OH2            15.8723212922      -32.9703963765       16.3021658414  W2        6996            0.0000000000
     20987      6996  TIP3      H1             15.6571212922      -33.7360563765       16.8347658414  W2        6996            0.0000000000
     20988      6996  TIP3      H2             16.5280612922      -32.4979363765       16.8150158414  W2        6996            0.0000000000
     20989      6997  TIP3      OH2             4.7901312922      -31.5818663765       17.9470458414  W2        6997            0.0000000000
     20990      6997  TIP3      H1              5.4037612922      -30.9491063765       18.3202858414  W2        6997            0.0000000000
     20991      6997  TIP3      H2              5.3022012922      -32.0543663765       17.2907358414  W2        6997            0.0000000000
     20992      6998  TIP3      OH2             6.1729712922      -23.8341763765       21.0693458414  W2        6998            0.0000000000
     20993      6998  TIP3      H1              6.1677312922      -22.9548263765       20.6912758414  W2        6998            0.0000000000
     20994      6998  TIP3      H2              5.3193812922      -23.9177663765       21.4943358414  W2        6998            0.0000000000
     20995      6999  TIP3      OH2             2.2940612922      -24.1633863765       11.8512758414  W2        6999            0.0000000000
     20996      6999  TIP3      H1              2.0221512922      -23.9342863765       10.9625658414  W2        6999            0.0000000000
     20997      6999  TIP3      H2              2.3396312922      -23.3255063765       12.3118058414  W2        6999            0.0000000000
     20998      7000  TIP3      OH2            15.9190312922      -22.5417963765       18.5641258414  W2        7000            0.0000000000
     20999      7000  TIP3      H1             14.9774012922      -22.4834063765       18.7258158414  W2        7000            0.0000000000
     21000      7000  TIP3      H2             16.1956412922      -21.6357463765       18.4270958414  W2        7000            0.0000000000
     21001      7001  TIP3      OH2            16.2197312922      -34.2552663765       19.9815158414  W2        7001            0.0000000000
     21002      7001  TIP3      H1             15.4836512922      -33.6445563765       19.9436458414  W2        7001            0.0000000000
     21003      7001  TIP3      H2             16.9031312922      -33.8403663765       19.4551558414  W2        7001            0.0000000000
     21004      7002  TIP3      OH2             9.2228712922      -36.1685363765       17.4473158414  W2        7002            0.0000000000
     21005      7002  TIP3      H1              9.1052912922      -37.1169363765       17.3931458414  W2        7002            0.0000000000
     21006      7002  TIP3      H2              8.3678812922      -35.8359263765       17.7204258414  W2        7002            0.0000000000
     21007      7003  TIP3      OH2            14.1711512922      -20.7604463765       15.1892858414  W2        7003            0.0000000000
     21008      7003  TIP3      H1             14.5963812922      -21.4676563765       14.7042458414  W2        7003            0.0000000000
     21009      7003  TIP3      H2             14.4881512922      -19.9591763765       14.7725058414  W2        7003            0.0000000000
     21010      7004  TIP3      OH2            15.3308012922      -22.8595963765       13.6979458414  W2        7004            0.0000000000
     21011      7004  TIP3      H1             15.0732812922      -23.5495863765       13.0865358414  W2        7004            0.0000000000
     21012      7004  TIP3      H2             15.4018812922      -23.3024763765       14.5435358414  W2        7004            0.0000000000
     21013      7005  TIP3      OH2            17.0168212922      -24.2929263765       22.1752958414  W2        7005            0.0000000000
     21014      7005  TIP3      H1             17.1564512922      -24.8846763765       21.4359958414  W2        7005            0.0000000000
     21015      7005  TIP3      H2             17.1841012922      -23.4203363765       21.8191758414  W2        7005            0.0000000000
     21016      7006  TIP3      OH2            11.4893612922      -27.3309763765       11.9478958414  W2        7006            0.0000000000
     21017      7006  TIP3      H1             10.7779112922      -26.7960063765       11.5959458414  W2        7006            0.0000000000
     21018      7006  TIP3      H2             12.1803212922      -27.2757663765       11.2877858414  W2        7006            0.0000000000
     21019      7007  TIP3      OH2            11.5432812922      -28.8735463765        8.9863958414  W2        7007            0.0000000000
     21020      7007  TIP3      H1             12.2442712922      -28.8508563765        9.6377958414  W2        7007            0.0000000000
     21021      7007  TIP3      H2             11.8455712922      -29.5015763765        8.3303258414  W2        7007            0.0000000000
     21022      7008  TIP3      OH2            18.8587512922      -27.9531263765       20.2413358414  W2        7008            0.0000000000
     21023      7008  TIP3      H1             18.2061612922      -27.2585663765       20.3304258414  W2        7008            0.0000000000
     21024      7008  TIP3      H2             19.3237812922      -27.7430363765       19.4314958414  W2        7008            0.0000000000
     21025      7009  TIP3      OH2            14.8951312922      -27.1216463765       12.8994858414  W2        7009            0.0000000000
     21026      7009  TIP3      H1             14.1632312922      -26.8932763765       13.4725458414  W2        7009            0.0000000000
     21027      7009  TIP3      H2             15.3423512922      -27.8353763765       13.3542358414  W2        7009            0.0000000000
     21028      7010  TIP3      OH2            14.7924812922      -28.9473863765       21.9671858414  W2        7010            0.0000000000
     21029      7010  TIP3      H1             14.8723912922      -28.1839463765       22.5390358414  W2        7010            0.0000000000
     21030      7010  TIP3      H2             14.1912512922      -28.6681463765       21.2766958414  W2        7010            0.0000000000
     21031      7011  TIP3      OH2             6.5405012922      -26.4910263765       14.7819858414  W2        7011            0.0000000000
     21032      7011  TIP3      H1              6.2100212922      -26.8616863765       13.9636858414  W2        7011            0.0000000000
     21033      7011  TIP3      H2              7.1289112922      -27.1616263765       15.1288158414  W2        7011            0.0000000000
     21034      7012  TIP3      OH2             7.9072512922      -23.0629663765       17.4632058414  W2        7012            0.0000000000
     21035      7012  TIP3      H1              7.8123812922      -23.6416563765       16.7066658414  W2        7012            0.0000000000
     21036      7012  TIP3      H2              8.6366112922      -23.4343963765       17.9594858414  W2        7012            0.0000000000
     21037      7013  TIP3      OH2             6.9070512922      -27.7224663765       18.4154858414  W2        7013            0.0000000000
     21038      7013  TIP3      H1              7.4723012922      -27.6010463765       17.6526058414  W2        7013            0.0000000000
     21039      7013  TIP3      H2              7.2259412922      -27.0849663765       19.0543358414  W2        7013            0.0000000000
     21040      7014  TIP3      OH2            13.2162712922      -22.2192763765       19.1495358414  W2        7014            0.0000000000
     21041      7014  TIP3      H1             12.9759312922      -21.5569663765       19.7974558414  W2        7014            0.0000000000
     21042      7014  TIP3      H2             13.0180912922      -23.0537563765       19.5744958414  W2        7014            0.0000000000
     21043      7015  TIP3      OH2             7.7871212922      -23.3231963765       23.1326758414  W2        7015            0.0000000000
     21044      7015  TIP3      H1              7.4758712922      -22.5408763765       23.5879958414  W2        7015            0.0000000000
     21045      7015  TIP3      H2              7.1371412922      -23.4762863765       22.4468758414  W2        7015            0.0000000000
     21046      7016  TIP3      OH2            13.7660812922      -27.9593563765       10.5846058414  W2        7016            0.0000000000
     21047      7016  TIP3      H1             14.3456312922      -27.8093263765       11.3314958414  W2        7016            0.0000000000
     21048      7016  TIP3      H2             14.1800812922      -27.4886163765        9.8612458414  W2        7016            0.0000000000
     21049      7017  TIP3      OH2             4.7071112922      -27.1250863765       22.3612458414  W2        7017            0.0000000000
     21050      7017  TIP3      H1              4.7774312922      -26.4744063765       23.0597458414  W2        7017            0.0000000000
     21051      7017  TIP3      H2              3.8163312922      -27.0223363765       22.0263358414  W2        7017            0.0000000000
     21052      7018  TIP3      OH2            11.4925712922      -21.2225063765       14.0199158414  W2        7018            0.0000000000
     21053      7018  TIP3      H1             11.9663312922      -20.9268763765       14.7973358414  W2        7018            0.0000000000
     21054      7018  TIP3      H2             10.9295012922      -20.4843463765       13.7868758414  W2        7018            0.0000000000
     21055      7019  TIP3      OH2             6.0267112922      -21.2516963765       23.8960558414  W2        7019            0.0000000000
     21056      7019  TIP3      H1              6.0342412922      -21.3877263765       22.9486058414  W2        7019            0.0000000000
     21057      7019  TIP3      H2              5.1107512922      -21.3688863765       24.1480558414  W2        7019            0.0000000000
     21058      7020  TIP3      OH2            17.4649212922      -36.2093163765       10.3975758414  W2        7020            0.0000000000
     21059      7020  TIP3      H1             16.5649912922      -36.0704163765       10.6926358414  W2        7020            0.0000000000
     21060      7020  TIP3      H2             17.7167612922      -35.3778563765        9.9957458414  W2        7020            0.0000000000
     21061      7021  TIP3      OH2             5.5307712922      -27.4215963765       12.3712658414  W2        7021            0.0000000000
     21062      7021  TIP3      H1              5.2389012922      -26.6534263765       11.8803958414  W2        7021            0.0000000000
     21063      7021  TIP3      H2              4.8562912922      -28.0809763765       12.2084058414  W2        7021            0.0000000000
     21064      7022  TIP3      OH2            18.6540612922      -21.8430763765        8.7739658414  W2        7022            0.0000000000
     21065      7022  TIP3      H1             18.7274112922      -20.9040563765        8.9444958414  W2        7022            0.0000000000
     21066      7022  TIP3      H2             19.5595712922      -22.1482163765        8.7176958414  W2        7022            0.0000000000
     21067      7023  TIP3      OH2             1.6237812922      -25.0586763765       21.1862458414  W2        7023            0.0000000000
     21068      7023  TIP3      H1              1.1226212922      -25.0867363765       20.3712158414  W2        7023            0.0000000000
     21069      7023  TIP3      H2              1.6291512922      -25.9643563765       21.4959758414  W2        7023            0.0000000000
     21070      7024  TIP3      OH2             1.3740512922      -22.2782963765       18.0702658414  W2        7024            0.0000000000
     21071      7024  TIP3      H1              2.3201112922      -22.4225963765       18.0512158414  W2        7024            0.0000000000
     21072      7024  TIP3      H2              1.2616812922      -21.4940163765       18.6073858414  W2        7024            0.0000000000
     21073      7025  TIP3      OH2            19.5719012922      -21.6123263765       23.7526358414  W2        7025            0.0000000000
     21074      7025  TIP3      H1             19.5225812922      -22.5675163765       23.7153958414  W2        7025            0.0000000000
     21075      7025  TIP3      H2             18.7451312922      -21.3447963765       24.1540158414  W2        7025            0.0000000000
     21076      7026  TIP3      OH2            10.5503012922      -22.0384063765       22.6287758414  W2        7026            0.0000000000
     21077      7026  TIP3      H1             10.6377612922      -21.2119463765       23.1036858414  W2        7026            0.0000000000
     21078      7026  TIP3      H2              9.6868112922      -22.3680263765       22.8777058414  W2        7026            0.0000000000
     21079      7027  TIP3      OH2            10.9648812922      -18.2660363765       12.4348358414  W2        7027            0.0000000000
     21080      7027  TIP3      H1             10.8894812922      -18.3873163765       11.4883558414  W2        7027            0.0000000000
     21081      7027  TIP3      H2             10.9977512922      -17.3167663765       12.5532958414  W2        7027            0.0000000000
     21082      7028  TIP3      OH2             4.6182612922      -19.4773363765       14.2157358414  W2        7028            0.0000000000
     21083      7028  TIP3      H1              4.7703012922      -19.8252963765       15.0943858414  W2        7028            0.0000000000
     21084      7028  TIP3      H2              3.7673012922      -19.8336063765       13.9604558414  W2        7028            0.0000000000
     21085      7029  TIP3      OH2            14.0664812922      -19.1120163765        9.4370758414  W2        7029            0.0000000000
     21086      7029  TIP3      H1             14.4413212922      -19.8564063765        8.9663358414  W2        7029            0.0000000000
     21087      7029  TIP3      H2             14.0708512922      -19.3819563765       10.3554058414  W2        7029            0.0000000000
     21088      7030  TIP3      OH2            13.7352912922      -19.1863063765       12.1862958414  W2        7030            0.0000000000
     21089      7030  TIP3      H1             12.8002712922      -19.0861163765       12.3649958414  W2        7030            0.0000000000
     21090      7030  TIP3      H2             14.0154812922      -19.8957063765       12.7646158414  W2        7030            0.0000000000
     21091      7031  TIP3      OH2            16.7238812922      -30.1190763765       24.2328558414  W2        7031            0.0000000000
     21092      7031  TIP3      H1             16.3165612922      -29.6385163765       23.5121858414  W2        7031            0.0000000000
     21093      7031  TIP3      H2             16.7644512922      -31.0244763765       23.9249358414  W2        7031            0.0000000000
     21094      7032  TIP3      OH2             3.8728312922      -23.7351363765       22.2295258414  W2        7032            0.0000000000
     21095      7032  TIP3      H1              4.0889612922      -24.0965763765       23.0891058414  W2        7032            0.0000000000
     21096      7032  TIP3      H2              3.0173012922      -24.1097563765       22.0198758414  W2        7032            0.0000000000
     21097      7033  TIP3      OH2             6.4916312922      -35.2650863765       18.2249458414  W2        7033            0.0000000000
     21098      7033  TIP3      H1              5.6300012922      -35.3522663765       17.8172358414  W2        7033            0.0000000000
     21099      7033  TIP3      H2              6.4692012922      -34.4090763765       18.6527058414  W2        7033            0.0000000000
     21100      7034  TIP3      OH2            11.1544112922      -35.5430463765       21.5996458414  W2        7034            0.0000000000
     21101      7034  TIP3      H1             11.5747212922      -35.9583363765       22.3527058414  W2        7034            0.0000000000
     21102      7034  TIP3      H2             10.2213712922      -35.7217163765       21.7168458414  W2        7034            0.0000000000
     21103      7035  TIP3      OH2            14.4809012922      -31.7875263765       22.4530958414  W2        7035            0.0000000000
     21104      7035  TIP3      H1             13.9668512922      -31.9133063765       23.2506958414  W2        7035            0.0000000000
     21105      7035  TIP3      H2             14.3253712922      -30.8752163765       22.2087158414  W2        7035            0.0000000000
     21106      7036  TIP3      OH2            15.2433912922      -26.9265263765        8.2143958414  W2        7036            0.0000000000
     21107      7036  TIP3      H1             15.2854712922      -27.1491363765        7.2843958414  W2        7036            0.0000000000
     21108      7036  TIP3      H2             16.0926012922      -26.5278163765        8.4043858414  W2        7036            0.0000000000
     21109      7037  TIP3      OH2            10.8161412922      -33.0507063765        8.8847258414  W2        7037            0.0000000000
     21110      7037  TIP3      H1             10.5626212922      -33.0315463765        9.8075358414  W2        7037            0.0000000000
     21111      7037  TIP3      H2             10.5593512922      -33.9221663765        8.5833458414  W2        7037            0.0000000000
     21112      7038  TIP3      OH2             6.5826412922      -30.2996363765       19.3199658414  W2        7038            0.0000000000
     21113      7038  TIP3      H1              5.9408512922      -30.3399063765       20.0289758414  W2        7038            0.0000000000
     21114      7038  TIP3      H2              6.6198412922      -29.3731663765       19.0822658414  W2        7038            0.0000000000
     21115      7039  TIP3      OH2             6.5795512922      -30.0786263765       14.2319658414  W2        7039            0.0000000000
     21116      7039  TIP3      H1              5.6868412922      -30.4190163765       14.1733458414  W2        7039            0.0000000000
     21117      7039  TIP3      H2              7.0302112922      -30.4555363765       13.4762858414  W2        7039            0.0000000000
     21118      7040  TIP3      OH2            12.1151012922      -29.6625963765       13.0490458414  W2        7040            0.0000000000
     21119      7040  TIP3      H1             11.7061312922      -28.8477363765       12.7575258414  W2        7040            0.0000000000
     21120      7040  TIP3      H2             12.8357212922      -29.8025863765       12.4347558414  W2        7040            0.0000000000
     21121      7041  TIP3      OH2            11.2172612922      -29.4869563765       24.5371158414  W2        7041            0.0000000000
     21122      7041  TIP3      H1             10.6546412922      -30.1917963765       24.8578958414  W2        7041            0.0000000000
     21123      7041  TIP3      H2             12.0436012922      -29.6077663765       25.0048758414  W2        7041            0.0000000000
     21124      7042  TIP3      OH2            13.1198712922      -30.2165563765       15.8630158414  W2        7042            0.0000000000
     21125      7042  TIP3      H1             12.9243212922      -29.6108763765       15.1480758414  W2        7042            0.0000000000
     21126      7042  TIP3      H2             13.3011312922      -31.0500363765       15.4286458414  W2        7042            0.0000000000
     21127      7043  TIP3      OH2             4.3326912922      -29.9792863765       21.1871658414  W2        7043            0.0000000000
     21128      7043  TIP3      H1              4.2946312922      -29.5791263765       22.0558758414  W2        7043            0.0000000000
     21129      7043  TIP3      H2              3.8418012922      -30.7960463765       21.2774558414  W2        7043            0.0000000000
     21130      7044  TIP3      OH2             7.6984312922      -32.6050563765        7.9857658414  W2        7044            0.0000000000
     21131      7044  TIP3      H1              7.2675012922      -33.0500463765        8.7155058414  W2        7044            0.0000000000
     21132      7044  TIP3      H2              6.9803012922      -32.2334263765        7.4735158414  W2        7044            0.0000000000
     21133      7045  TIP3      OH2             0.9407712922      -32.8631063765       15.0376358414  W2        7045            0.0000000000
     21134      7045  TIP3      H1              1.5715412922      -32.8918963765       15.7570258414  W2        7045            0.0000000000
     21135      7045  TIP3      H2              1.3902012922      -33.2882363765       14.3072258414  W2        7045            0.0000000000
     21136      7046  TIP3      OH2             2.2149812922      -32.1169063765       10.4616758414  W2        7046            0.0000000000
     21137      7046  TIP3      H1              2.6891512922      -31.5259163765        9.8767658414  W2        7046            0.0000000000
     21138      7046  TIP3      H2              1.4976212922      -31.5866163765       10.8086858414  W2        7046            0.0000000000
     21139      7047  TIP3      OH2            12.3837912922      -28.5784263765       20.5342558414  W2        7047            0.0000000000
     21140      7047  TIP3      H1             12.7072712922      -29.2094563765       19.8913058414  W2        7047            0.0000000000
     21141      7047  TIP3      H2             11.9437212922      -29.1132063765       21.1949958414  W2        7047            0.0000000000
     21142      7048  TIP3      OH2             9.1610812922      -32.6508763765       15.3183758414  W2        7048            0.0000000000
     21143      7048  TIP3      H1              8.2501912922      -32.5941963765       15.6069758414  W2        7048            0.0000000000
     21144      7048  TIP3      H2              9.6663712922      -32.7113263765       16.1290958414  W2        7048            0.0000000000
     21145      7049  TIP3      OH2             3.9894212922      -31.0222463765       14.1451358414  W2        7049            0.0000000000
     21146      7049  TIP3      H1              3.1002212922      -30.9226963765       13.8050958414  W2        7049            0.0000000000
     21147      7049  TIP3      H2              4.2859112922      -31.8639463765       13.7989258414  W2        7049            0.0000000000
     21148      7050  TIP3      OH2             7.6426012922      -31.0219863765       11.8015958414  W2        7050            0.0000000000
     21149      7050  TIP3      H1              8.5741512922      -30.8929863765       11.9799058414  W2        7050            0.0000000000
     21150      7050  TIP3      H2              7.4276312922      -30.3525563765       11.1520658414  W2        7050            0.0000000000
     21151      7051  TIP3      OH2            13.5662712922      -33.4162463765       18.5825558414  W2        7051            0.0000000000
     21152      7051  TIP3      H1             12.8894312922      -33.2849363765       19.2465258414  W2        7051            0.0000000000
     21153      7051  TIP3      H2             13.0807612922      -33.5712963765       17.7723258414  W2        7051            0.0000000000
     21154      7052  TIP3      OH2             6.3166212922      -29.8277663765        9.3682058414  W2        7052            0.0000000000
     21155      7052  TIP3      H1              5.7741312922      -30.2073863765        8.6769658414  W2        7052            0.0000000000
     21156      7052  TIP3      H2              7.1501112922      -29.6332963765        8.9396158414  W2        7052            0.0000000000
     21157      7053  TIP3      OH2            16.8537812922      -17.7447063765       24.8593158414  W2        7053            0.0000000000
     21158      7053  TIP3      H1             17.0536512922      -17.3205163765       24.0248458414  W2        7053            0.0000000000
     21159      7053  TIP3      H2             17.5091512922      -17.4008863765       25.4663558414  W2        7053            0.0000000000
     21160      7054  TIP3      OH2             4.4517612922      -25.2705763765       24.4673658414  W2        7054            0.0000000000
     21161      7054  TIP3      H1              5.1840012922      -25.0159863765       25.0288158414  W2        7054            0.0000000000
     21162      7054  TIP3      H2              3.6716312922      -25.0660363765       24.9829058414  W2        7054            0.0000000000
     21163      7055  TIP3      OH2            10.4810512922      -29.8635763765       17.2053358414  W2        7055            0.0000000000
     21164      7055  TIP3      H1             11.0453912922      -30.4099163765       16.6582958414  W2        7055            0.0000000000
     21165      7055  TIP3      H2             10.3333912922      -30.3853863765       17.9940958414  W2        7055            0.0000000000
     21166      7056  TIP3      OH2             5.4830212922      -33.7269663765       13.6238158414  W2        7056            0.0000000000
     21167      7056  TIP3      H1              5.1659712922      -34.6294363765       13.5883558414  W2        7056            0.0000000000
     21168      7056  TIP3      H2              6.2644312922      -33.7252263765       13.0709758414  W2        7056            0.0000000000
     21169      7057  TIP3      OH2             9.1076412922      -31.4749663765       19.6193758414  W2        7057            0.0000000000
     21170      7057  TIP3      H1              8.2721712922      -31.0210163765       19.7296158414  W2        7057            0.0000000000
     21171      7057  TIP3      H2              9.6317012922      -31.1991163765       20.3713658414  W2        7057            0.0000000000
     21172      7058  TIP3      OH2             9.6519012922      -25.2621963765       11.3040158414  W2        7058            0.0000000000
     21173      7058  TIP3      H1              8.9070012922      -25.7696663765       10.9818058414  W2        7058            0.0000000000
     21174      7058  TIP3      H2              9.5176212922      -25.2133963765       12.2504958414  W2        7058            0.0000000000
     21175      7059  TIP3      OH2            16.8017912922      -26.1293763765       20.0907758414  W2        7059            0.0000000000
     21176      7059  TIP3      H1             17.4436712922      -25.6727463765       19.5469958414  W2        7059            0.0000000000
     21177      7059  TIP3      H2             15.9714812922      -26.0161363765       19.6281858414  W2        7059            0.0000000000
     21178      7060  TIP3      OH2            13.5495812922      -32.4482063765        9.5032758414  W2        7060            0.0000000000
     21179      7060  TIP3      H1             12.6110012922      -32.3366463765        9.3521558414  W2        7060            0.0000000000
     21180      7060  TIP3      H2             13.8467912922      -31.5915163765        9.8098458414  W2        7060            0.0000000000
     21181      7061  TIP3      OH2            11.1711112922      -25.0778663765       22.5409258414  W2        7061            0.0000000000
     21182      7061  TIP3      H1             10.8257212922      -25.4596263765       23.3478858414  W2        7061            0.0000000000
     21183      7061  TIP3      H2             10.9711212922      -24.1445063765       22.6122158414  W2        7061            0.0000000000
     21184      7062  TIP3      OH2            14.2679312922      -30.5809363765       11.1640158414  W2        7062            0.0000000000
     21185      7062  TIP3      H1             15.1598312922      -30.7184363765       11.4831358414  W2        7062            0.0000000000
     21186      7062  TIP3      H2             14.3242912922      -29.7903263765       10.6273658414  W2        7062            0.0000000000
     21187      7063  TIP3      OH2             4.7767312922      -25.9671963765       17.0738058414  W2        7063            0.0000000000
     21188      7063  TIP3      H1              5.5214512922      -25.9696263765       16.4724558414  W2        7063            0.0000000000
     21189      7063  TIP3      H2              4.8543912922      -26.7908163765       17.5553158414  W2        7063            0.0000000000
     21190      7064  TIP3      OH2            11.7773112922      -23.8037663765       10.3294758414  W2        7064            0.0000000000
     21191      7064  TIP3      H1             11.4821512922      -22.9769763765       10.7109558414  W2        7064            0.0000000000
     21192      7064  TIP3      H2             11.0743112922      -24.4230763765       10.5256158414  W2        7064            0.0000000000
     21193      7065  TIP3      OH2             1.7847012922      -27.5065063765       22.3886558414  W2        7065            0.0000000000
     21194      7065  TIP3      H1              2.0075612922      -27.9245463765       23.2204058414  W2        7065            0.0000000000
     21195      7065  TIP3      H2              1.1827112922      -28.1190063765       21.9659358414  W2        7065            0.0000000000
     21196      7066  TIP3      OH2             8.8011912922      -27.9895163765       24.6016258414  W2        7066            0.0000000000
     21197      7066  TIP3      H1              8.5052712922      -28.1552163765       23.7065358414  W2        7066            0.0000000000
     21198      7066  TIP3      H2              9.7327112922      -28.2094863765       24.5910158414  W2        7066            0.0000000000
     21199      7067  TIP3      OH2            13.4214712922      -22.6163163765       22.4914258414  W2        7067            0.0000000000
     21200      7067  TIP3      H1             12.5209012922      -22.4330563765       22.2238158414  W2        7067            0.0000000000
     21201      7067  TIP3      H2             13.4555812922      -22.3573863765       23.4123058414  W2        7067            0.0000000000
     21202      7068  TIP3      OH2            19.1528012922      -30.3715263765       10.8586858414  W2        7068            0.0000000000
     21203      7068  TIP3      H1             18.5984312922      -30.7677263765       10.1864358414  W2        7068            0.0000000000
     21204      7068  TIP3      H2             19.2531612922      -29.4610063765       10.5810158414  W2        7068            0.0000000000
     21205      7069  TIP3      OH2            19.1160012922      -24.5713563765       23.6958358414  W2        7069            0.0000000000
     21206      7069  TIP3      H1             18.2648512922      -24.3329763765       23.3284758414  W2        7069            0.0000000000
     21207      7069  TIP3      H2             19.7063412922      -24.5880363765       22.9425458414  W2        7069            0.0000000000
     21208      7070  TIP3      OH2            17.4479712922      -21.5854863765       11.3238958414  W2        7070            0.0000000000
     21209      7070  TIP3      H1             17.0750812922      -22.4111063765       11.6329558414  W2        7070            0.0000000000
     21210      7070  TIP3      H2             17.7253212922      -21.7685463765       10.4262358414  W2        7070            0.0000000000
     21211      7071  TIP3      OH2            14.6083612922      -26.7775363765       18.3450858414  W2        7071            0.0000000000
     21212      7071  TIP3      H1             13.6800512922      -27.0093463765       18.3180158414  W2        7071            0.0000000000
     21213      7071  TIP3      H2             15.0594712922      -27.5545563765       18.0149658414  W2        7071            0.0000000000
     21214      7072  TIP3      OH2             7.1516712922      -22.4493763765       14.4779558414  W2        7072            0.0000000000
     21215      7072  TIP3      H1              7.6788912922      -21.6759363765       14.2778358414  W2        7072            0.0000000000
     21216      7072  TIP3      H2              6.2715212922      -22.2244563765       14.1763558414  W2        7072            0.0000000000
     21217      7073  TIP3      OH2             2.9064412922      -27.5869663765        9.0651958414  W2        7073            0.0000000000
     21218      7073  TIP3      H1              3.5224312922      -26.9602463765        9.4446758414  W2        7073            0.0000000000
     21219      7073  TIP3      H2              2.0447012922      -27.2709863765        9.3368458414  W2        7073            0.0000000000
     21220      7074  TIP3      OH2             8.5789012922      -24.7863863765       14.0543858414  W2        7074            0.0000000000
     21221      7074  TIP3      H1              8.3379012922      -23.8609463765       14.0959158414  W2        7074            0.0000000000
     21222      7074  TIP3      H2              7.8382612922      -25.2452563765       14.4507758414  W2        7074            0.0000000000
     21223      7075  TIP3      OH2             9.0935612922      -20.6370263765       20.3694958414  W2        7075            0.0000000000
     21224      7075  TIP3      H1              9.4560312922      -19.7824663765       20.1359358414  W2        7075            0.0000000000
     21225      7075  TIP3      H2              9.6250812922      -20.9288663765       21.1101258414  W2        7075            0.0000000000
     21226      7076  TIP3      OH2             7.2619812922      -19.7646263765       13.5996058414  W2        7076            0.0000000000
     21227      7076  TIP3      H1              6.3120312922      -19.6588863765       13.6509358414  W2        7076            0.0000000000
     21228      7076  TIP3      H2              7.6137912922      -18.9438863765       13.9443558414  W2        7076            0.0000000000
     21229      7077  TIP3      OH2            12.6376412922      -24.5379563765       20.0700558414  W2        7077            0.0000000000
     21230      7077  TIP3      H1             12.2117712922      -24.7657863765       20.8964558414  W2        7077            0.0000000000
     21231      7077  TIP3      H2             13.2182212922      -25.2767763765       19.8875858414  W2        7077            0.0000000000
     21232      7078  TIP3      OH2            14.8405312922      -23.6089063765        9.1439558414  W2        7078            0.0000000000
     21233      7078  TIP3      H1             15.1938412922      -23.9889263765        9.9483058414  W2        7078            0.0000000000
     21234      7078  TIP3      H2             13.8918812922      -23.7024263765        9.2308858414  W2        7078            0.0000000000
     21235      7079  TIP3      OH2            15.2960612922      -19.9860063765       22.5395358414  W2        7079            0.0000000000
     21236      7079  TIP3      H1             14.6943812922      -20.5417163765       22.0441658414  W2        7079            0.0000000000
     21237      7079  TIP3      H2             15.5774312922      -19.3190263765       21.9132758414  W2        7079            0.0000000000
     21238      7080  TIP3      OH2            19.3439712922      -19.1296563765        9.3449758414  W2        7080            0.0000000000
     21239      7080  TIP3      H1             20.0877612922      -18.5436063765        9.2051358414  W2        7080            0.0000000000
     21240      7080  TIP3      H2             18.6497812922      -18.5610763765        9.6782158414  W2        7080            0.0000000000
     21241      7081  TIP3      OH2             3.4186512922      -32.7532363765       21.9467958414  W2        7081            0.0000000000
     21242      7081  TIP3      H1              2.5258812922      -32.4146963765       21.8791958414  W2        7081            0.0000000000
     21243      7081  TIP3      H2              3.3199312922      -33.6086263765       22.3648758414  W2        7081            0.0000000000
     21244      7082  TIP3      OH2            15.7064612922      -24.9367063765       11.3707458414  W2        7082            0.0000000000
     21245      7082  TIP3      H1             15.4292212922      -25.6647763765       11.9268558414  W2        7082            0.0000000000
     21246      7082  TIP3      H2             16.6337612922      -24.8175063765       11.5760058414  W2        7082            0.0000000000
     21247      7083  TIP3      OH2             3.0698512922      -20.9487963765       20.3817358414  W2        7083            0.0000000000
     21248      7083  TIP3      H1              3.2868812922      -21.8805563765       20.3507058414  W2        7083            0.0000000000
     21249      7083  TIP3      H2              3.3162012922      -20.6742963765       21.2650158414  W2        7083            0.0000000000
     21250      7084  TIP3      OH2             8.9313112922      -22.4972963765        7.5909558414  W2        7084            0.0000000000
     21251      7084  TIP3      H1              9.1702912922      -23.2454863765        7.0438458414  W2        7084            0.0000000000
     21252      7084  TIP3      H2              8.6624412922      -22.8851263765        8.4237358414  W2        7084            0.0000000000
     21253      7085  TIP3      OH2             7.8683712922      -22.9269163765       10.0472158414  W2        7085            0.0000000000
     21254      7085  TIP3      H1              8.0151712922      -23.4469363765       10.8373058414  W2        7085            0.0000000000
     21255      7085  TIP3      H2              7.8655412922      -22.0201563765       10.3538058414  W2        7085            0.0000000000
     21256      7086  TIP3      OH2             4.3214812922      -25.6745863765       10.5577558414  W2        7086            0.0000000000
     21257      7086  TIP3      H1              3.6354112922      -25.3223363765       11.1247258414  W2        7086            0.0000000000
     21258      7086  TIP3      H2              4.8442712922      -24.9116263765       10.3111858414  W2        7086            0.0000000000
     21259      7087  TIP3      OH2            12.1529912922      -33.0122063765       20.8366558414  W2        7087            0.0000000000
     21260      7087  TIP3      H1             12.8517812922      -32.9383363765       21.4866258414  W2        7087            0.0000000000
     21261      7087  TIP3      H2             11.7721312922      -33.8767063765       20.9909458414  W2        7087            0.0000000000
     21262      7088  TIP3      OH2            12.9374812922      -33.3600363765       11.9338858414  W2        7088            0.0000000000
     21263      7088  TIP3      H1             13.1573112922      -32.8884963765       11.1304258414  W2        7088            0.0000000000
     21264      7088  TIP3      H2             13.4958812922      -32.9657763765       12.6039458414  W2        7088            0.0000000000
     21265      7089  TIP3      OH2            10.6060912922      -21.2295563765       10.7966358414  W2        7089            0.0000000000
     21266      7089  TIP3      H1              9.7897012922      -20.7325863765       10.8490658414  W2        7089            0.0000000000
     21267      7089  TIP3      H2             11.1357212922      -20.7542063765       10.1565158414  W2        7089            0.0000000000
     21268      7090  TIP3      OH2            10.1374712922      -31.6321563765       12.7687258414  W2        7090            0.0000000000
     21269      7090  TIP3      H1             10.9497312922      -31.1278363765       12.8148958414  W2        7090            0.0000000000
     21270      7090  TIP3      H2              9.8927712922      -31.7771863765       13.6826858414  W2        7090            0.0000000000
     21271      7091  TIP3      OH2            10.6731112922      -30.6458863765       21.9533858414  W2        7091            0.0000000000
     21272      7091  TIP3      H1             10.7921412922      -30.0723463765       22.7104258414  W2        7091            0.0000000000
     21273      7091  TIP3      H2             11.3285712922      -31.3339463765       22.0681658414  W2        7091            0.0000000000
     21274      7092  TIP3      OH2            11.0211412922      -34.5508563765       13.7068358414  W2        7092            0.0000000000
     21275      7092  TIP3      H1             10.6744912922      -33.9337963765       14.3512658414  W2        7092            0.0000000000
     21276      7092  TIP3      H2             11.6798312922      -34.0502863765       13.2253858414  W2        7092            0.0000000000
     21277      7093  TIP3      OH2             7.9444012922      -20.1858363765       10.7783258414  W2        7093            0.0000000000
     21278      7093  TIP3      H1              8.1052712922      -19.3860863765       10.2775858414  W2        7093            0.0000000000
     21279      7093  TIP3      H2              7.7471812922      -19.8792363765       11.6633858414  W2        7093            0.0000000000
     21280      7094  TIP3      OH2             6.6788412922      -33.4879163765       10.3940858414  W2        7094            0.0000000000
     21281      7094  TIP3      H1              6.5953212922      -32.5996063765       10.7407258414  W2        7094            0.0000000000
     21282      7094  TIP3      H2              7.5688712922      -33.7532463765       10.6257658414  W2        7094            0.0000000000
     21283      7095  TIP3      OH2            16.8776912922      -32.7388563765       22.7883558414  W2        7095            0.0000000000
     21284      7095  TIP3      H1             15.9612712922      -32.4766863765       22.7007258414  W2        7095            0.0000000000
     21285      7095  TIP3      H2             17.2131912922      -32.7419563765       21.8918858414  W2        7095            0.0000000000
     21286      7096  TIP3      OH2            15.4797912922      -28.9887563765       16.8840858414  W2        7096            0.0000000000
     21287      7096  TIP3      H1             14.6822312922      -29.4037363765       16.5555858414  W2        7096            0.0000000000
     21288      7096  TIP3      H2             15.9249012922      -29.6793863765       17.3751358414  W2        7096            0.0000000000
     21289      7097  TIP3      OH2             4.9373712922      -23.0606963765        9.4545358414  W2        7097            0.0000000000
     21290      7097  TIP3      H1              5.5295212922      -22.3612163765        9.7307758414  W2        7097            0.0000000000
     21291      7097  TIP3      H2              5.3966712922      -23.4937463765        8.7349958414  W2        7097            0.0000000000
     21292      7098  TIP3      OH2             3.2532912922      -30.3963963765        8.5704758414  W2        7098            0.0000000000
     21293      7098  TIP3      H1              3.2085512922      -29.4570863765        8.7491758414  W2        7098            0.0000000000
     21294      7098  TIP3      H2              2.3656112922      -30.6319063765        8.3006858414  W2        7098            0.0000000000
     21295      7099  TIP3      OH2            16.5662512922      -19.7325063765       18.5064358414  W2        7099            0.0000000000
     21296      7099  TIP3      H1             16.4106812922      -19.0540663765       17.8493658414  W2        7099            0.0000000000
     21297      7099  TIP3      H2             17.4988912922      -19.6605763765       18.7094958414  W2        7099            0.0000000000
     21298      7100  TIP3      OH2             4.0614912922      -35.6147363765       17.2435758414  W2        7100            0.0000000000
     21299      7100  TIP3      H1              3.8324712922      -35.5554863765       16.3160758414  W2        7100            0.0000000000
     21300      7100  TIP3      H2              3.6188312922      -36.4061863765       17.5499858414  W2        7100            0.0000000000
     21301      7101  TIP3      OH2             2.9918212922      -21.6740263765       13.4041558414  W2        7101            0.0000000000
     21302      7101  TIP3      H1              2.1596812922      -21.2017563765       13.4312958414  W2        7101            0.0000000000
     21303      7101  TIP3      H2              3.5376512922      -21.1642663765       12.8054658414  W2        7101            0.0000000000
     21304      7102  TIP3      OH2             2.2801912922      -19.0616563765       24.7339558414  W2        7102            0.0000000000
     21305      7102  TIP3      H1              2.8204112922      -19.2782563765       25.4938758414  W2        7102            0.0000000000
     21306      7102  TIP3      H2              1.7989912922      -19.8670563765       24.5442058414  W2        7102            0.0000000000
     21307      7103  TIP3      OH2             6.8775312922      -20.1422163765       26.3543758414  W2        7103            0.0000000000
     21308      7103  TIP3      H1              7.6452512922      -20.6011363765       26.6952958414  W2        7103            0.0000000000
     21309      7103  TIP3      H2              6.8561512922      -20.3682363765       25.4244958414  W2        7103            0.0000000000
     21310      7104  TIP3      OH2            10.9694912922      -20.6341563765        7.7295558414  W2        7104            0.0000000000
     21311      7104  TIP3      H1             10.3255912922      -21.2652963765        8.0509258414  W2        7104            0.0000000000
     21312      7104  TIP3      H2             11.7313212922      -21.1653563765        7.4979058414  W2        7104            0.0000000000
     21313      7105  TIP3      OH2            13.4544012922      -21.7621063765       25.0835258414  W2        7105            0.0000000000
     21314      7105  TIP3      H1             13.1033512922      -22.6188063765       25.3265658414  W2        7105            0.0000000000
     21315      7105  TIP3      H2             14.1807212922      -21.6194363765       25.6904258414  W2        7105            0.0000000000
     21316      7106  TIP3      OH2            15.5737812922      -20.8171663765        7.9633558414  W2        7106            0.0000000000
     21317      7106  TIP3      H1             15.8568212922      -21.6116463765        8.4160458414  W2        7106            0.0000000000
     21318      7106  TIP3      H2             16.3135712922      -20.5840663765        7.4024658414  W2        7106            0.0000000000
     21319      7107  TIP3      OH2             2.1871412922      -25.2512463765       25.6883858414  W2        7107            0.0000000000
     21320      7107  TIP3      H1              2.3311912922      -26.1531763765       25.4020558414  W2        7107            0.0000000000
     21321      7107  TIP3      H2              1.4148812922      -24.9650363765       25.2006158414  W2        7107            0.0000000000
     21322      7108  TIP3      OH2             6.5285112922      -24.9076763765        7.8208458414  W2        7108            0.0000000000
     21323      7108  TIP3      H1              6.5929212922      -25.7017163765        8.3514858414  W2        7108            0.0000000000
     21324      7108  TIP3      H2              7.1814312922      -25.0263963765        7.1310458414  W2        7108            0.0000000000
     21325      7109  TIP3      OH2             8.8427512922      -25.2814363765       25.1210258414  W2        7109            0.0000000000
     21326      7109  TIP3      H1              8.5141312922      -25.0106263765       24.2637658414  W2        7109            0.0000000000
     21327      7109  TIP3      H2              8.9945712922      -26.2224563765       25.0335258414  W2        7109            0.0000000000
     21328      7110  TIP3      OH2            11.8808512922      -23.8605063765        7.5566458414  W2        7110            0.0000000000
     21329      7110  TIP3      H1             11.6122612922      -23.6802963765        8.4575358414  W2        7110            0.0000000000
     21330      7110  TIP3      H2             11.6744112922      -24.7858863765        7.4252258414  W2        7110            0.0000000000
     21331      7111  TIP3      OH2            14.5772712922      -25.3657063765       22.5042558414  W2        7111            0.0000000000
     21332      7111  TIP3      H1             15.3227512922      -24.7773363765       22.3846558414  W2        7111            0.0000000000
     21333      7111  TIP3      H2             13.8199512922      -24.7837363765       22.5675658414  W2        7111            0.0000000000
     21334      7112  TIP3      OH2             3.0197912922      -28.0509163765       25.1083158414  W2        7112            0.0000000000
     21335      7112  TIP3      H1              3.4279112922      -28.9082563765       24.9873758414  W2        7112            0.0000000000
     21336      7112  TIP3      H2              2.7595512922      -28.0367863765       26.0293458414  W2        7112            0.0000000000
     21337      7113  TIP3      OH2             7.6778912922      -26.9350563765       10.1266458414  W2        7113            0.0000000000
     21338      7113  TIP3      H1              7.2180912922      -27.4192263765       10.8124958414  W2        7113            0.0000000000
     21339      7113  TIP3      H2              7.9327612922      -27.6035163765        9.4906958414  W2        7113            0.0000000000
     21340      7114  TIP3      OH2             6.9668212922      -29.0423463765       22.4826058414  W2        7114            0.0000000000
     21341      7114  TIP3      H1              6.3484312922      -28.3676863765       22.7630758414  W2        7114            0.0000000000
     21342      7114  TIP3      H2              7.3109412922      -28.7209563765       21.6492258414  W2        7114            0.0000000000
     21343      7115  TIP3      OH2             8.7489312922      -28.6918763765        8.3889658414  W2        7115            0.0000000000
     21344      7115  TIP3      H1              8.5684312922      -28.8467563765        7.4617958414  W2        7115            0.0000000000
     21345      7115  TIP3      H2              9.6989812922      -28.5840063765        8.4337558414  W2        7115            0.0000000000
     21346      7116  TIP3      OH2            11.9866412922      -26.5708163765       25.7600858414  W2        7116            0.0000000000
     21347      7116  TIP3      H1             12.9397612922      -26.4869063765       25.7326858414  W2        7116            0.0000000000
     21348      7116  TIP3      H2             11.8261012922      -27.2826363765       26.3795758414  W2        7116            0.0000000000
     21349      7117  TIP3      OH2            18.1387612922      -26.3374563765        7.8347758414  W2        7117            0.0000000000
     21350      7117  TIP3      H1             17.8652412922      -26.7619063765        7.0216058414  W2        7117            0.0000000000
     21351      7117  TIP3      H2             18.1781712922      -25.4060063765        7.6178158414  W2        7117            0.0000000000
     21352      7118  TIP3      OH2             7.3061912922      -31.6872663765       23.5649158414  W2        7118            0.0000000000
     21353      7118  TIP3      H1              7.4562812922      -32.4161363765       22.9628858414  W2        7118            0.0000000000
     21354      7118  TIP3      H2              7.3084312922      -30.9100963765       23.0061358414  W2        7118            0.0000000000
     21355      7119  TIP3      OH2             7.7187612922      -33.3176863765       21.0576558414  W2        7119            0.0000000000
     21356      7119  TIP3      H1              8.2545112922      -32.8660163765       20.4055858414  W2        7119            0.0000000000
     21357      7119  TIP3      H2              6.8667212922      -33.4257063765       20.6350658414  W2        7119            0.0000000000
     21358      7120  TIP3      OH2             9.3006012922      -27.8780663765       21.2971758414  W2        7120            0.0000000000
     21359      7120  TIP3      H1             10.0510812922      -28.0343163765       20.7239558414  W2        7120            0.0000000000
     21360      7120  TIP3      H2              8.9614312922      -27.0264063765       21.0217258414  W2        7120            0.0000000000
     21361      7121  TIP3      OH2            13.7162212922      -30.0628863765       26.3257058414  W2        7121            0.0000000000
     21362      7121  TIP3      H1             13.9083512922      -30.9939463765       26.2141558414  W2        7121            0.0000000000
     21363      7121  TIP3      H2             14.5738512922      -29.6379363765       26.3152458414  W2        7121            0.0000000000
     21364      7122  TIP3      OH2            15.0329412922      -27.2743663765       24.4029758414  W2        7122            0.0000000000
     21365      7122  TIP3      H1             14.7514412922      -26.5649063765       23.8253558414  W2        7122            0.0000000000
     21366      7122  TIP3      H2             15.9753712922      -27.3470663765       24.2520958414  W2        7122            0.0000000000
     21367      7123  TIP3      OH2             5.7848212922      -30.4889163765       25.4764758414  W2        7123            0.0000000000
     21368      7123  TIP3      H1              5.0177212922      -31.0214363765       25.2662358414  W2        7123            0.0000000000
     21369      7123  TIP3      H2              6.4637212922      -30.7988763765       24.8771058414  W2        7123            0.0000000000
     21370      7124  TIP3      OH2             8.5243112922      -35.8611163765       21.4890158414  W2        7124            0.0000000000
     21371      7124  TIP3      H1              8.4262712922      -34.9147963765       21.3836358414  W2        7124            0.0000000000
     21372      7124  TIP3      H2              7.7819312922      -36.2337363765       21.0133658414  W2        7124            0.0000000000
     21373      7125  TIP3      OH2             9.7883612922      -31.5395763765       25.0528558414  W2        7125            0.0000000000
     21374      7125  TIP3      H1              9.5529012922      -31.7589063765       25.9543458414  W2        7125            0.0000000000
     21375      7125  TIP3      H2              9.0050512922      -31.7464563765       24.5431058414  W2        7125            0.0000000000
     21376      7126  TIP3      OH2            12.5040212922      -32.4122263765       24.1282058414  W2        7126            0.0000000000
     21377      7126  TIP3      H1             11.5565612922      -32.3802563765       24.2605358414  W2        7126            0.0000000000
     21378      7126  TIP3      H2             12.8166912922      -33.0375163765       24.7820258414  W2        7126            0.0000000000
     21379      7127  TIP3      OH2            14.1381712922      -33.7781163765       26.1333958414  W2        7127            0.0000000000
     21380      7127  TIP3      H1             14.0413512922      -34.7303863765       26.1275858414  W2        7127            0.0000000000
     21381      7127  TIP3      H2             13.8164812922      -33.5094363765       26.9939458414  W2        7127            0.0000000000
     21382      7128  TIP3      OH2             3.9651012922      -32.5685363765       25.1809458414  W2        7128            0.0000000000
     21383      7128  TIP3      H1              4.1768412922      -33.2749263765       24.5706958414  W2        7128            0.0000000000
     21384      7128  TIP3      H2              3.8538512922      -33.0059363765       26.0250658414  W2        7128            0.0000000000
     21385      7129  TIP3      OH2             8.7461212922      -36.5673763765       24.1602958414  W2        7129            0.0000000000
     21386      7129  TIP3      H1              9.4579612922      -37.2071563765       24.1462058414  W2        7129            0.0000000000
     21387      7129  TIP3      H2              8.6451612922      -36.3005463765       23.2466058414  W2        7129            0.0000000000
     21388      7130  TIP3      OH2             9.0998712922      -34.8845363765       26.2139258414  W2        7130            0.0000000000
     21389      7130  TIP3      H1              8.9680912922      -35.3601563765       25.3937758414  W2        7130            0.0000000000
     21390      7130  TIP3      H2              8.5006112922      -34.1401763765       26.1586358414  W2        7130            0.0000000000
     21391      7131  TIP3      OH2             8.6461012922      -18.0015063765        9.3903258414  W2        7131            0.0000000000
     21392      7131  TIP3      H1              9.5791712922      -17.8436363765        9.5341658414  W2        7131            0.0000000000
     21393      7131  TIP3      H2              8.3819812922      -17.3262063765        8.7654758414  W2        7131            0.0000000000
     21394      7132  TIP3      OH2             2.2145912922      -23.3651263765        8.8731358414  W2        7132            0.0000000000
     21395      7132  TIP3      H1              3.1285112922      -23.2862363765        9.1465258414  W2        7132            0.0000000000
     21396      7132  TIP3      H2              2.2219012922      -24.0521663765        8.2066958414  W2        7132            0.0000000000
     21397      7133  TIP3      OH2             0.8636512922      -17.9722763765       13.9505258414  W2        7133            0.0000000000
     21398      7133  TIP3      H1              0.2163612922      -18.4341063765       13.4176458414  W2        7133            0.0000000000
     21399      7133  TIP3      H2              1.2181112922      -18.6439463765       14.5331458414  W2        7133            0.0000000000
     21400      7134  TIP3      OH2             1.7335712922      -19.8915763765       15.7551458414  W2        7134            0.0000000000
     21401      7134  TIP3      H1              1.3992512922      -20.7718463765       15.9271658414  W2        7134            0.0000000000
     21402      7134  TIP3      H2              1.9558112922      -19.5460763765       16.6197058414  W2        7134            0.0000000000
     21403      7135  TIP3      OH2            19.2820512922      -19.0819363765       18.7356258414  W2        7135            0.0000000000
     21404      7135  TIP3      H1             19.2607212922      -18.8970963765       19.6745658414  W2        7135            0.0000000000
     21405      7135  TIP3      H2             19.9726712922      -18.5135363765       18.3947658414  W2        7135            0.0000000000
     21406      7136  TIP3      OH2            18.8453412922      -19.5148263765       21.6575358414  W2        7136            0.0000000000
     21407      7136  TIP3      H1             18.3582112922      -20.2504163765       21.2862758414  W2        7136            0.0000000000
     21408      7136  TIP3      H2             19.3946112922      -19.9084363765       22.3354758414  W2        7136            0.0000000000
     21409      7137  TIP3      OH2            17.2960712922      -23.7250163765       26.2955658414  W2        7137            0.0000000000
     21410      7137  TIP3      H1             16.4301812922      -23.8300463765       26.6897958414  W2        7137            0.0000000000
     21411      7137  TIP3      H2             17.6726612922      -22.9666863765       26.7420358414  W2        7137            0.0000000000
     21412      7138  TIP3      OH2            18.5970412922      -25.4686463765       11.8098158414  W2        7138            0.0000000000
     21413      7138  TIP3      H1             19.4471812922      -25.0475563765       11.9369758414  W2        7138            0.0000000000
     21414      7138  TIP3      H2             18.6025512922      -26.2086363765       12.4169558414  W2        7138            0.0000000000
     21415      7139  TIP3      OH2            18.9916012922      -27.4149063765       13.6333858414  W2        7139            0.0000000000
     21416      7139  TIP3      H1             18.2650612922      -27.8946463765       14.0311458414  W2        7139            0.0000000000
     21417      7139  TIP3      H2             19.5729312922      -27.2094363765       14.3655458414  W2        7139            0.0000000000
     21418      7140  TIP3      OH2            18.7507212922      -24.6301563765       18.5811458414  W2        7140            0.0000000000
     21419      7140  TIP3      H1             19.5841412922      -25.0081563765       18.3005058414  W2        7140            0.0000000000
     21420      7140  TIP3      H2             18.8627512922      -23.6870363765       18.4620558414  W2        7140            0.0000000000
     21421      7141  TIP3      OH2            17.2369512922      -21.7524063765       20.8879858414  W2        7141            0.0000000000
     21422      7141  TIP3      H1             16.5894812922      -21.4272563765       21.5135058414  W2        7141            0.0000000000
     21423      7141  TIP3      H2             16.7193512922      -22.1926363765       20.2138158414  W2        7141            0.0000000000
     21424      7142  TIP3      OH2            19.2599112922      -27.5140563765       10.0245158414  W2        7142            0.0000000000
     21425      7142  TIP3      H1             18.7380212922      -27.1576463765        9.3056058414  W2        7142            0.0000000000
     21426      7142  TIP3      H2             19.2268312922      -26.8392763765       10.7026058414  W2        7142            0.0000000000
     21427      7143  TIP3      OH2            17.6088112922      -30.2744963765        8.5752258414  W2        7143            0.0000000000
     21428      7143  TIP3      H1             17.7052512922      -29.6077963765        7.8951958414  W2        7143            0.0000000000
     21429      7143  TIP3      H2             17.4687712922      -31.0898663765        8.0937758414  W2        7143            0.0000000000
     21430      7144  TIP3      OH2            16.7782812922      -28.8942563765       14.1962558414  W2        7144            0.0000000000
     21431      7144  TIP3      H1             16.6281612922      -29.8393963765       14.1760358414  W2        7144            0.0000000000
     21432      7144  TIP3      H2             16.4247312922      -28.6131163765       15.0401658414  W2        7144            0.0000000000
     21433      7145  TIP3      OH2             1.8135212922      -26.8160363765       18.2066358414  W2        7145            0.0000000000
     21434      7145  TIP3      H1              1.9978112922      -26.8978663765       17.2709258414  W2        7145            0.0000000000
     21435      7145  TIP3      H2              2.6628112922      -26.9403363765       18.6302758414  W2        7145            0.0000000000
     21436      7146  TIP3      OH2            17.6345712922      -26.9239263765       23.8350858414  W2        7146            0.0000000000
     21437      7146  TIP3      H1             18.2173012922      -27.6586963765       24.0268058414  W2        7146            0.0000000000
     21438      7146  TIP3      H2             18.1985012922      -26.1518963765       23.8816658414  W2        7146            0.0000000000
     21439      7147  TIP3      OH2            19.1312812922      -29.0213463765       24.5196258414  W2        7147            0.0000000000
     21440      7147  TIP3      H1             18.2679512922      -29.4001363765       24.3540958414  W2        7147            0.0000000000
     21441      7147  TIP3      H2             19.7356512922      -29.7598663765       24.4452058414  W2        7147            0.0000000000
     21442      7148  TIP3      OH2            16.8561912922      -32.8665163765        7.6927758414  W2        7148            0.0000000000
     21443      7148  TIP3      H1             17.4667712922      -33.2378363765        8.3295958414  W2        7148            0.0000000000
     21444      7148  TIP3      H2             16.0193412922      -33.2878263765        7.8887758414  W2        7148            0.0000000000
     21445      7149  TIP3      OH2            16.4887612922      -31.3116763765       12.6587658414  W2        7149            0.0000000000
     21446      7149  TIP3      H1             16.7684712922      -32.2186363765       12.7829358414  W2        7149            0.0000000000
     21447      7149  TIP3      H2             17.2479312922      -30.8775263765       12.2696858414  W2        7149            0.0000000000
     21448      7150  TIP3      OH2            17.1005912922      -30.7299363765       18.0946558414  W2        7150            0.0000000000
     21449      7150  TIP3      H1             18.0333912922      -30.5179463765       18.0602558414  W2        7150            0.0000000000
     21450      7150  TIP3      H2             16.8653412922      -30.6287263765       19.0169558414  W2        7150            0.0000000000
     21451      7151  TIP3      OH2            17.1297812922      -29.9934063765       20.8705958414  W2        7151            0.0000000000
     21452      7151  TIP3      H1             16.2869112922      -29.7253663765       21.2365758414  W2        7151            0.0000000000
     21453      7151  TIP3      H2             17.5722112922      -29.1712163765       20.6597058414  W2        7151            0.0000000000
     21454      7152  TIP3      OH2             1.4110012922      -31.5455363765       24.3475158414  W2        7152            0.0000000000
     21455      7152  TIP3      H1              2.3304912922      -31.6677063765       24.5838258414  W2        7152            0.0000000000
     21456      7152  TIP3      H2              0.9614512922      -32.2955663765       24.7368658414  W2        7152            0.0000000000
     21457      7153  TIP3      OH2            19.4129412922      -36.0133863765       26.2240958414  W2        7153            0.0000000000
     21458      7153  TIP3      H1             19.7626412922      -36.6670363765       25.6185658414  W2        7153            0.0000000000
     21459      7153  TIP3      H2             19.5598912922      -35.1759763765       25.7843558414  W2        7153            0.0000000000
     21460      7154  TIP3      OH2            17.1022412922      -34.0487463765       12.7069658414  W2        7154            0.0000000000
     21461      7154  TIP3      H1             17.2847412922      -34.4975963765       13.5324658414  W2        7154            0.0000000000
     21462      7154  TIP3      H2             16.5025312922      -34.6333063765       12.2434258414  W2        7154            0.0000000000
     21463      7155  TIP3      OH2             2.6322512922      -33.2333763765       17.2388058414  W2        7155            0.0000000000
     21464      7155  TIP3      H1              3.0774112922      -34.0251263765       17.5407758414  W2        7155            0.0000000000
     21465      7155  TIP3      H2              3.0985512922      -32.5168563765       17.6693658414  W2        7155            0.0000000000
     21466      7156  TIP3      OH2             0.9362812922      -30.2340763765       18.3078258414  W2        7156            0.0000000000
     21467      7156  TIP3      H1              1.4282612922      -30.4550263765       17.5170258414  W2        7156            0.0000000000
     21468      7156  TIP3      H2              1.2983712922      -29.3937363765       18.5887758414  W2        7156            0.0000000000
     21469      7157  TIP3      OH2            18.9326612922      -33.9039263765       24.5732258414  W2        7157            0.0000000000
     21470      7157  TIP3      H1             18.0152312922      -33.6332163765       24.5375758414  W2        7157            0.0000000000
     21471      7157  TIP3      H2             19.0556012922      -34.4390863765       23.7891958414  W2        7157            0.0000000000
     21472      7158  TIP3      OH2            18.9688612922      -33.9809363765        9.2349958414  W2        7158            0.0000000000
     21473      7158  TIP3      H1             19.3811212922      -34.7023663765        8.7597958414  W2        7158            0.0000000000
     21474      7158  TIP3      H2             19.6505112922      -33.3114763765        9.2934258414  W2        7158            0.0000000000
     21475      7159  TIP3      OH2             1.2499312922      -33.9761663765       12.3620658414  W2        7159            0.0000000000
     21476      7159  TIP3      H1              0.3247712922      -33.7675063765       12.2326158414  W2        7159            0.0000000000
     21477      7159  TIP3      H2              1.7039212922      -33.4920863765       11.6722958414  W2        7159            0.0000000000
     21478      7160  TIP3      OH2            16.0206512922      -18.9919963765       14.3078058414  W2        7160            0.0000000000
     21479      7160  TIP3      H1             16.6729412922      -19.3397863765       13.6997158414  W2        7160            0.0000000000
     21480      7160  TIP3      H2             16.5310312922      -18.5036763765       14.9537758414  W2        7160            0.0000000000
     21481      7161  TIP3      OH2             1.2134712922      -35.2382663765       20.7063158414  W2        7161            0.0000000000
     21482      7161  TIP3      H1              0.5485212922      -35.4842363765       21.3494058414  W2        7161            0.0000000000
     21483      7161  TIP3      H2              0.7706012922      -34.6162263765       20.1291158414  W2        7161            0.0000000000
     21484      7162  TIP3      OH2             3.4054012922      -22.0628563765       24.8508958414  W2        7162            0.0000000000
     21485      7162  TIP3      H1              2.5846512922      -21.8882063765       24.3903658414  W2        7162            0.0000000000
     21486      7162  TIP3      H2              3.1531812922      -22.1363863765       25.7713358414  W2        7162            0.0000000000
     21487      7163  TIP3      OH2             6.3596912922      -21.0887363765       21.1092958414  W2        7163            0.0000000000
     21488      7163  TIP3      H1              5.9348012922      -20.2788863765       20.8267558414  W2        7163            0.0000000000
     21489      7163  TIP3      H2              7.2639712922      -21.0033263765       20.8072758414  W2        7163            0.0000000000
     21490      7164  TIP3      OH2            10.6708312922      -19.6897363765       24.0686658414  W2        7164            0.0000000000
     21491      7164  TIP3      H1             10.8555812922      -20.0231263765       24.9466958414  W2        7164            0.0000000000
     21492      7164  TIP3      H2             11.5172812922      -19.3798763765       23.7465858414  W2        7164            0.0000000000
     21493      7165  TIP3      OH2            13.0158712922      -18.4038463765       23.3128058414  W2        7165            0.0000000000
     21494      7165  TIP3      H1             13.6927612922      -19.0366163765       23.0727258414  W2        7165            0.0000000000
     21495      7165  TIP3      H2             13.3377512922      -18.0027963765       24.1201358414  W2        7165            0.0000000000
     21496      7166  TIP3      OH2            17.9332512922      -35.8142963765       22.3923058414  W2        7166            0.0000000000
     21497      7166  TIP3      H1             17.1206012922      -35.4892663765       22.0047758414  W2        7166            0.0000000000
     21498      7166  TIP3      H2             18.1661012922      -36.5744463765       21.8592158414  W2        7166            0.0000000000
     21499      7167  TIP3      OH2             3.7613612922      -17.8323463765       21.1568258414  W2        7167            0.0000000000
     21500      7167  TIP3      H1              3.0410012922      -17.3922463765       20.7055958414  W2        7167            0.0000000000
     21501      7167  TIP3      H2              3.3957612922      -18.0828763765       22.0052258414  W2        7167            0.0000000000
     21502      7168  TIP3      OH2             6.2286212922      -18.2319563765       20.1865458414  W2        7168            0.0000000000
     21503      7168  TIP3      H1              5.3638412922      -18.1601063765       20.5905558414  W2        7168            0.0000000000
     21504      7168  TIP3      H2              6.1735212922      -17.6852263765       19.4027958414  W2        7168            0.0000000000
     21505      7169  TIP3      OH2            10.9391812922      -18.3440663765       19.3621458414  W2        7169            0.0000000000
     21506      7169  TIP3      H1             10.4825812922      -17.8150963765       18.7079858414  W2        7169            0.0000000000
     21507      7169  TIP3      H2             11.1019812922      -17.7409263765       20.0873758414  W2        7169            0.0000000000
     21508      7170  TIP3      OH2            13.2668112922      -19.4661063765       20.3071758414  W2        7170            0.0000000000
     21509      7170  TIP3      H1             12.3621812922      -19.3010863765       20.0413858414  W2        7170            0.0000000000
     21510      7170  TIP3      H2             13.6956712922      -18.6128863765       20.2415158414  W2        7170            0.0000000000
     21511      7171  TIP3      OH2            15.8710012922      -17.8961963765       20.6019558414  W2        7171            0.0000000000
     21512      7171  TIP3      H1             15.6892012922      -16.9803063765       20.3914458414  W2        7171            0.0000000000
     21513      7171  TIP3      H2             16.0477812922      -18.3064863765       19.7554158414  W2        7171            0.0000000000
     21514      7172  TIP3      OH2             3.1761712922      -19.2090963765       18.0670058414  W2        7172            0.0000000000
     21515      7172  TIP3      H1              3.1577712922      -19.6345863765       18.9242358414  W2        7172            0.0000000000
     21516      7172  TIP3      H2              3.9809612922      -19.5275963765       17.6582258414  W2        7172            0.0000000000
     21517      7173  TIP3      OH2             5.3174812922      -20.4992263765       16.7219958414  W2        7173            0.0000000000
     21518      7173  TIP3      H1              5.0985512922      -21.4154863765       16.8915958414  W2        7173            0.0000000000
     21519      7173  TIP3      H2              6.1417012922      -20.3591863765       17.1881358414  W2        7173            0.0000000000
     21520      7174  TIP3      OH2             7.8547312922      -20.0292963765       17.5707958414  W2        7174            0.0000000000
     21521      7174  TIP3      H1              8.0673012922      -20.9173963765       17.2838858414  W2        7174            0.0000000000
     21522      7174  TIP3      H2              7.9192412922      -20.0635263765       18.5251958414  W2        7174            0.0000000000
     21523      7175  TIP3      OH2            11.3631012922      -34.3652363765       16.7151258414  W2        7175            0.0000000000
     21524      7175  TIP3      H1             10.6887812922      -34.9946763765       16.9707058414  W2        7175            0.0000000000
     21525      7175  TIP3      H2             11.9270212922      -34.8493463765       16.1119158414  W2        7175            0.0000000000
     21526      7176  TIP3      OH2            16.5058212922      -36.2578363765       16.8278358414  W2        7176            0.0000000000
     21527      7176  TIP3      H1             17.1095812922      -35.7102963765       16.3259358414  W2        7176            0.0000000000
     21528      7176  TIP3      H2             15.6360212922      -35.9387963765       16.5872458414  W2        7176            0.0000000000
     21529      7177  TIP3      OH2            18.2328612922      -35.1189663765       15.1609258414  W2        7177            0.0000000000
     21530      7177  TIP3      H1             18.8446112922      -35.6333963765       14.6342858414  W2        7177            0.0000000000
     21531      7177  TIP3      H2             18.6152012922      -34.2417563765       15.1843658414  W2        7177            0.0000000000
     21532      7178  TIP3      OH2             3.6898512922      -35.7312063765       14.5371158414  W2        7178            0.0000000000
     21533      7178  TIP3      H1              2.9128312922      -35.9657163765       14.0297058414  W2        7178            0.0000000000
     21534      7178  TIP3      H2              4.2202112922      -36.5279963765       14.5459158414  W2        7178            0.0000000000
     21535      7179  TIP3      OH2             2.5261912922      -35.9333963765       10.3407258414  W2        7179            0.0000000000
     21536      7179  TIP3      H1              2.9652612922      -35.3223463765        9.7490758414  W2        7179            0.0000000000
     21537      7179  TIP3      H2              1.8924312922      -35.3949863765       10.8147258414  W2        7179            0.0000000000
     21538      7180  TIP3      OH2             8.2691112922      -35.8044963765       14.3504258414  W2        7180            0.0000000000
     21539      7180  TIP3      H1              9.1434512922      -35.4160663765       14.3208558414  W2        7180            0.0000000000
     21540      7180  TIP3      H2              8.1331912922      -36.0197163765       15.2731458414  W2        7180            0.0000000000
     21541      7181  TIP3      OH2            13.8259512922      -35.7745163765       15.9995958414  W2        7181            0.0000000000
     21542      7181  TIP3      H1             13.9021112922      -35.6793563765       15.0501958414  W2        7181            0.0000000000
     21543      7181  TIP3      H2             13.5508712922      -36.6822263765       16.1285058414  W2        7181            0.0000000000
     21544      7182  TIP3      OH2            15.1792112922      -35.7487363765       11.6920958414  W2        7182            0.0000000000
     21545      7182  TIP3      H1             14.4763212922      -35.1338163765       11.4822358414  W2        7182            0.0000000000
     21546      7182  TIP3      H2             14.7343512922      -36.5860663765       11.8231858414  W2        7182            0.0000000000
     21547      7183  TIP3      OH2             2.4271412922      -19.9851763765       11.2382358414  W2        7183            0.0000000000
     21548      7183  TIP3      H1              1.7421312922      -20.0232863765       10.5707458414  W2        7183            0.0000000000
     21549      7183  TIP3      H2              2.4308612922      -19.0724163765       11.5264458414  W2        7183            0.0000000000
     21550      7184  TIP3      OH2             4.3871012922      -34.0172463765        8.7831358414  W2        7184            0.0000000000
     21551      7184  TIP3      H1              4.8784412922      -34.6470063765        8.2556858414  W2        7184            0.0000000000
     21552      7184  TIP3      H2              5.0107312922      -33.7213063765        9.4462558414  W2        7184            0.0000000000
     21553      7185  TIP3      OH2             9.4131112922      -33.7240963765       11.2401858414  W2        7185            0.0000000000
     21554      7185  TIP3      H1              9.5912412922      -34.3707763765       11.9230458414  W2        7185            0.0000000000
     21555      7185  TIP3      H2              9.3597312922      -32.8903263765       11.7072958414  W2        7185            0.0000000000
     21556      7186  TIP3      OH2            11.2914912922      -18.7756863765        9.6358558414  W2        7186            0.0000000000
     21557      7186  TIP3      H1             12.1575112922      -18.4089463765        9.4576758414  W2        7186            0.0000000000
     21558      7186  TIP3      H2             11.0447712922      -19.2148863765        8.8219358414  W2        7186            0.0000000000
     21559      7187  TIP3      OH2            18.0004512922      -19.2126563765       12.3149658414  W2        7187            0.0000000000
     21560      7187  TIP3      H1             17.8061612922      -19.9604463765       11.7499258414  W2        7187            0.0000000000
     21561      7187  TIP3      H2             17.9614612922      -18.4546463765       11.7317558414  W2        7187            0.0000000000
     21562      7188  TIP3      OH2             3.6476512922      -35.2170163765       24.0547358414  W2        7188            0.0000000000
     21563      7188  TIP3      H1              3.2814712922      -35.9827563765       24.4972058414  W2        7188            0.0000000000
     21564      7188  TIP3      H2              4.5605012922      -35.1879963765       24.3412458414  W2        7188            0.0000000000
     21565      7189  TIP3      OH2             5.6207312922      -35.8665763765       25.5904458414  W2        7189            0.0000000000
     21566      7189  TIP3      H1              6.5190912922      -36.1405563765       25.4057858414  W2        7189            0.0000000000
     21567      7189  TIP3      H2              5.2340412922      -36.6089763765       26.0547058414  W2        7189            0.0000000000
     21568      7190  TIP3      OH2             4.2452612922      -19.0650963765        8.2634458414  W2        7190            0.0000000000
     21569      7190  TIP3      H1              3.9777212922      -18.7788063765        9.1367558414  W2        7190            0.0000000000
     21570      7190  TIP3      H2              5.0165212922      -19.6111763765        8.4156958414  W2        7190            0.0000000000
     21571      7191  TIP3      OH2            14.0419612922      -36.5340463765       25.7727258414  W2        7191            0.0000000000
     21572      7191  TIP3      H1             14.1186812922      -36.9599763765       26.6264958414  W2        7191            0.0000000000
     21573      7191  TIP3      H2             14.9356212922      -36.5205763765       25.4300758414  W2        7191            0.0000000000
     21574      7192  TIP3      OH2            17.2180712922      -20.4614163765       24.4651458414  W2        7192            0.0000000000
     21575      7192  TIP3      H1             16.4362612922      -20.6476163765       23.9452058414  W2        7192            0.0000000000
     21576      7192  TIP3      H2             17.1460612922      -19.5319863765       24.6823958414  W2        7192            0.0000000000
     21577      7193  TIP3      OH2            31.6241112922      -26.5749763765       14.4958658414  W2        7193            0.0000000000
     21578      7193  TIP3      H1             31.7132212922      -25.6311563765       14.3635758414  W2        7193            0.0000000000
     21579      7193  TIP3      H2             30.9858712922      -26.8503363765       13.8378058414  W2        7193            0.0000000000
     21580      7194  TIP3      OH2            30.5572412922      -27.3199063765       17.9146858414  W2        7194            0.0000000000
     21581      7194  TIP3      H1             30.5189912922      -27.9662763765       18.6196458414  W2        7194            0.0000000000
     21582      7194  TIP3      H2             30.2348912922      -27.7864663765       17.1435558414  W2        7194            0.0000000000
     21583      7195  TIP3      OH2            22.9257412922      -27.7056963765       19.5076758414  W2        7195            0.0000000000
     21584      7195  TIP3      H1             22.9669512922      -28.3313663765       20.2309158414  W2        7195            0.0000000000
     21585      7195  TIP3      H2             23.6285112922      -27.0818363765       19.6897158414  W2        7195            0.0000000000
     21586      7196  TIP3      OH2            34.2632612922      -24.3808663765       16.2161958414  W2        7196            0.0000000000
     21587      7196  TIP3      H1             33.8225312922      -25.1012663765       16.6667558414  W2        7196            0.0000000000
     21588      7196  TIP3      H2             34.2502312922      -23.6601463765       16.8459658414  W2        7196            0.0000000000
     21589      7197  TIP3      OH2            23.8490512922      -23.2558063765       18.0425858414  W2        7197            0.0000000000
     21590      7197  TIP3      H1             23.4795712922      -24.0577563765       17.6730158414  W2        7197            0.0000000000
     21591      7197  TIP3      H2             24.7901612922      -23.4243163765       18.0889258414  W2        7197            0.0000000000
     21592      7198  TIP3      OH2            20.4591012922      -29.5955463765       13.4354658414  W2        7198            0.0000000000
     21593      7198  TIP3      H1             20.0114412922      -28.7496763765       13.4171158414  W2        7198            0.0000000000
     21594      7198  TIP3      H2             19.8982212922      -30.1751263765       12.9199758414  W2        7198            0.0000000000
     21595      7199  TIP3      OH2            21.1697112922      -27.4335863765       15.5612658414  W2        7199            0.0000000000
     21596      7199  TIP3      H1             21.3830612922      -28.2034263765       16.0885658414  W2        7199            0.0000000000
     21597      7199  TIP3      H2             21.9074712922      -27.3439163765       14.9580258414  W2        7199            0.0000000000
     21598      7200  TIP3      OH2            31.3748112922      -19.2766963765       16.4282358414  W2        7200            0.0000000000
     21599      7200  TIP3      H1             31.9944512922      -19.9532263765       16.1551558414  W2        7200            0.0000000000
     21600      7200  TIP3      H2             31.1665512922      -19.4946163765       17.3367258414  W2        7200            0.0000000000
     21601      7201  TIP3      OH2            28.9466812922      -24.8877663765       18.3207858414  W2        7201            0.0000000000
     21602      7201  TIP3      H1             29.2504712922      -25.5736263765       17.7261958414  W2        7201            0.0000000000
     21603      7201  TIP3      H2             29.6680812922      -24.7688963765       18.9385858414  W2        7201            0.0000000000
     21604      7202  TIP3      OH2            32.0873812922      -30.4935263765       18.6482658414  W2        7202            0.0000000000
     21605      7202  TIP3      H1             32.2299712922      -31.4398263765       18.6684258414  W2        7202            0.0000000000
     21606      7202  TIP3      H2             31.9812812922      -30.2865463765       17.7197558414  W2        7202            0.0000000000
     21607      7203  TIP3      OH2            25.2422112922      -32.3918863765       15.9207458414  W2        7203            0.0000000000
     21608      7203  TIP3      H1             25.2853212922      -31.5320363765       15.5023758414  W2        7203            0.0000000000
     21609      7203  TIP3      H2             24.7846212922      -32.9444163765       15.2870658414  W2        7203            0.0000000000
     21610      7204  TIP3      OH2            32.9644812922      -32.2613263765       14.3215758414  W2        7204            0.0000000000
     21611      7204  TIP3      H1             33.6109112922      -32.5900063765       14.9463358414  W2        7204            0.0000000000
     21612      7204  TIP3      H2             33.4744212922      -31.7434263765       13.6987158414  W2        7204            0.0000000000
     21613      7205  TIP3      OH2            21.8623612922      -29.9953063765       16.6828858414  W2        7205            0.0000000000
     21614      7205  TIP3      H1             22.5160212922      -30.5451363765       17.1148958414  W2        7205            0.0000000000
     21615      7205  TIP3      H2             21.8862912922      -30.2694063765       15.7660858414  W2        7205            0.0000000000
     21616      7206  TIP3      OH2            27.0188112922      -28.4451763765       15.8980358414  W2        7206            0.0000000000
     21617      7206  TIP3      H1             27.6349112922      -28.9716363765       16.4074358414  W2        7206            0.0000000000
     21618      7206  TIP3      H2             26.4326912922      -29.0853063765       15.4943958414  W2        7206            0.0000000000
     21619      7207  TIP3      OH2            24.0524012922      -33.4740463765       19.9948258414  W2        7207            0.0000000000
     21620      7207  TIP3      H1             23.8335712922      -32.9439863765       19.2284258414  W2        7207            0.0000000000
     21621      7207  TIP3      H2             23.3844912922      -33.2474963765       20.6419658414  W2        7207            0.0000000000
     21622      7208  TIP3      OH2            31.4213812922      -23.9739363765       13.5387358414  W2        7208            0.0000000000
     21623      7208  TIP3      H1             31.1258912922      -24.2967063765       12.6874258414  W2        7208            0.0000000000
     21624      7208  TIP3      H2             31.0971612922      -23.0742663765       13.5799958414  W2        7208            0.0000000000
     21625      7209  TIP3      OH2            26.6215412922      -25.7984763765       20.2821958414  W2        7209            0.0000000000
     21626      7209  TIP3      H1             25.8814512922      -25.2003263765       20.3857158414  W2        7209            0.0000000000
     21627      7209  TIP3      H2             27.3354912922      -25.2445163765       19.9665558414  W2        7209            0.0000000000
     21628      7210  TIP3      OH2            34.7283212922      -32.9703963765       16.3021658414  W2        7210            0.0000000000
     21629      7210  TIP3      H1             34.5131212922      -33.7360563765       16.8347658414  W2        7210            0.0000000000
     21630      7210  TIP3      H2             35.3840612922      -32.4979363765       16.8150158414  W2        7210            0.0000000000
     21631      7211  TIP3      OH2            23.6461312922      -31.5818663765       17.9470458414  W2        7211            0.0000000000
     21632      7211  TIP3      H1             24.2597612922      -30.9491063765       18.3202858414  W2        7211            0.0000000000
     21633      7211  TIP3      H2             24.1582012922      -32.0543663765       17.2907358414  W2        7211            0.0000000000
     21634      7212  TIP3      OH2            25.0289712922      -23.8341763765       21.0693458414  W2        7212            0.0000000000
     21635      7212  TIP3      H1             25.0237312922      -22.9548263765       20.6912758414  W2        7212            0.0000000000
     21636      7212  TIP3      H2             24.1753812922      -23.9177663765       21.4943358414  W2        7212            0.0000000000
     21637      7213  TIP3      OH2            21.1500612922      -24.1633863765       11.8512758414  W2        7213            0.0000000000
     21638      7213  TIP3      H1             20.8781512922      -23.9342863765       10.9625658414  W2        7213            0.0000000000
     21639      7213  TIP3      H2             21.1956312922      -23.3255063765       12.3118058414  W2        7213            0.0000000000
     21640      7214  TIP3      OH2            34.7750312922      -22.5417963765       18.5641258414  W2        7214            0.0000000000
     21641      7214  TIP3      H1             33.8334012922      -22.4834063765       18.7258158414  W2        7214            0.0000000000
     21642      7214  TIP3      H2             35.0516412922      -21.6357463765       18.4270958414  W2        7214            0.0000000000
     21643      7215  TIP3      OH2            35.0757312922      -34.2552663765       19.9815158414  W2        7215            0.0000000000
     21644      7215  TIP3      H1             34.3396512922      -33.6445563765       19.9436458414  W2        7215            0.0000000000
     21645      7215  TIP3      H2             35.7591312922      -33.8403663765       19.4551558414  W2        7215            0.0000000000
     21646      7216  TIP3      OH2            28.0788712922      -36.1685363765       17.4473158414  W2        7216            0.0000000000
     21647      7216  TIP3      H1             27.9612912922      -37.1169363765       17.3931458414  W2        7216            0.0000000000
     21648      7216  TIP3      H2             27.2238812922      -35.8359263765       17.7204258414  W2        7216            0.0000000000
     21649      7217  TIP3      OH2            33.0271512922      -20.7604463765       15.1892858414  W2        7217            0.0000000000
     21650      7217  TIP3      H1             33.4523812922      -21.4676563765       14.7042458414  W2        7217            0.0000000000
     21651      7217  TIP3      H2             33.3441512922      -19.9591763765       14.7725058414  W2        7217            0.0000000000
     21652      7218  TIP3      OH2            34.1868012922      -22.8595963765       13.6979458414  W2        7218            0.0000000000
     21653      7218  TIP3      H1             33.9292812922      -23.5495863765       13.0865358414  W2        7218            0.0000000000
     21654      7218  TIP3      H2             34.2578812922      -23.3024763765       14.5435358414  W2        7218            0.0000000000
     21655      7219  TIP3      OH2            35.8728212922      -24.2929263765       22.1752958414  W2        7219            0.0000000000
     21656      7219  TIP3      H1             36.0124512922      -24.8846763765       21.4359958414  W2        7219            0.0000000000
     21657      7219  TIP3      H2             36.0401012922      -23.4203363765       21.8191758414  W2        7219            0.0000000000
     21658      7220  TIP3      OH2            30.3453612922      -27.3309763765       11.9478958414  W2        7220            0.0000000000
     21659      7220  TIP3      H1             29.6339112922      -26.7960063765       11.5959458414  W2        7220            0.0000000000
     21660      7220  TIP3      H2             31.0363212922      -27.2757663765       11.2877858414  W2        7220            0.0000000000
     21661      7221  TIP3      OH2            30.3992812922      -28.8735463765        8.9863958414  W2        7221            0.0000000000
     21662      7221  TIP3      H1             31.1002712922      -28.8508563765        9.6377958414  W2        7221            0.0000000000
     21663      7221  TIP3      H2             30.7015712922      -29.5015763765        8.3303258414  W2        7221            0.0000000000
     21664      7222  TIP3      OH2            33.7511312922      -27.1216463765       12.8994858414  W2        7222            0.0000000000
     21665      7222  TIP3      H1             33.0192312922      -26.8932763765       13.4725458414  W2        7222            0.0000000000
     21666      7222  TIP3      H2             34.1983512922      -27.8353763765       13.3542358414  W2        7222            0.0000000000
     21667      7223  TIP3      OH2            33.6484812922      -28.9473863765       21.9671858414  W2        7223            0.0000000000
     21668      7223  TIP3      H1             33.7283912922      -28.1839463765       22.5390358414  W2        7223            0.0000000000
     21669      7223  TIP3      H2             33.0472512922      -28.6681463765       21.2766958414  W2        7223            0.0000000000
     21670      7224  TIP3      OH2            25.3965012922      -26.4910263765       14.7819858414  W2        7224            0.0000000000
     21671      7224  TIP3      H1             25.0660212922      -26.8616863765       13.9636858414  W2        7224            0.0000000000
     21672      7224  TIP3      H2             25.9849112922      -27.1616263765       15.1288158414  W2        7224            0.0000000000
     21673      7225  TIP3      OH2            26.7632512922      -23.0629663765       17.4632058414  W2        7225            0.0000000000
     21674      7225  TIP3      H1             26.6683812922      -23.6416563765       16.7066658414  W2        7225            0.0000000000
     21675      7225  TIP3      H2             27.4926112922      -23.4343963765       17.9594858414  W2        7225            0.0000000000
     21676      7226  TIP3      OH2            25.7630512922      -27.7224663765       18.4154858414  W2        7226            0.0000000000
     21677      7226  TIP3      H1             26.3283012922      -27.6010463765       17.6526058414  W2        7226            0.0000000000
     21678      7226  TIP3      H2             26.0819412922      -27.0849663765       19.0543358414  W2        7226            0.0000000000
     21679      7227  TIP3      OH2            32.0722712922      -22.2192763765       19.1495358414  W2        7227            0.0000000000
     21680      7227  TIP3      H1             31.8319312922      -21.5569663765       19.7974558414  W2        7227            0.0000000000
     21681      7227  TIP3      H2             31.8740912922      -23.0537563765       19.5744958414  W2        7227            0.0000000000
     21682      7228  TIP3      OH2            26.6431212922      -23.3231963765       23.1326758414  W2        7228            0.0000000000
     21683      7228  TIP3      H1             26.3318712922      -22.5408763765       23.5879958414  W2        7228            0.0000000000
     21684      7228  TIP3      H2             25.9931412922      -23.4762863765       22.4468758414  W2        7228            0.0000000000
     21685      7229  TIP3      OH2            32.6220812922      -27.9593563765       10.5846058414  W2        7229            0.0000000000
     21686      7229  TIP3      H1             33.2016312922      -27.8093263765       11.3314958414  W2        7229            0.0000000000
     21687      7229  TIP3      H2             33.0360812922      -27.4886163765        9.8612458414  W2        7229            0.0000000000
     21688      7230  TIP3      OH2            23.5631112922      -27.1250863765       22.3612458414  W2        7230            0.0000000000
     21689      7230  TIP3      H1             23.6334312922      -26.4744063765       23.0597458414  W2        7230            0.0000000000
     21690      7230  TIP3      H2             22.6723312922      -27.0223363765       22.0263358414  W2        7230            0.0000000000
     21691      7231  TIP3      OH2            30.3485712922      -21.2225063765       14.0199158414  W2        7231            0.0000000000
     21692      7231  TIP3      H1             30.8223312922      -20.9268763765       14.7973358414  W2        7231            0.0000000000
     21693      7231  TIP3      H2             29.7855012922      -20.4843463765       13.7868758414  W2        7231            0.0000000000
     21694      7232  TIP3      OH2            24.8827112922      -21.2516963765       23.8960558414  W2        7232            0.0000000000
     21695      7232  TIP3      H1             24.8902412922      -21.3877263765       22.9486058414  W2        7232            0.0000000000
     21696      7232  TIP3      H2             23.9667512922      -21.3688863765       24.1480558414  W2        7232            0.0000000000
     21697      7233  TIP3      OH2            36.3209212922      -36.2093163765       10.3975758414  W2        7233            0.0000000000
     21698      7233  TIP3      H1             35.4209912922      -36.0704163765       10.6926358414  W2        7233            0.0000000000
     21699      7233  TIP3      H2             36.5727612922      -35.3778563765        9.9957458414  W2        7233            0.0000000000
     21700      7234  TIP3      OH2            24.3867712922      -27.4215963765       12.3712658414  W2        7234            0.0000000000
     21701      7234  TIP3      H1             24.0949012922      -26.6534263765       11.8803958414  W2        7234            0.0000000000
     21702      7234  TIP3      H2             23.7122912922      -28.0809763765       12.2084058414  W2        7234            0.0000000000
     21703      7235  TIP3      OH2            20.4797812922      -25.0586763765       21.1862458414  W2        7235            0.0000000000
     21704      7235  TIP3      H1             19.9786212922      -25.0867363765       20.3712158414  W2        7235            0.0000000000
     21705      7235  TIP3      H2             20.4851512922      -25.9643563765       21.4959758414  W2        7235            0.0000000000
     21706      7236  TIP3      OH2            20.2300512922      -22.2782963765       18.0702658414  W2        7236            0.0000000000
     21707      7236  TIP3      H1             21.1761112922      -22.4225963765       18.0512158414  W2        7236            0.0000000000
     21708      7236  TIP3      H2             20.1176812922      -21.4940163765       18.6073858414  W2        7236            0.0000000000
     21709      7237  TIP3      OH2            29.4063012922      -22.0384063765       22.6287758414  W2        7237            0.0000000000
     21710      7237  TIP3      H1             29.4937612922      -21.2119463765       23.1036858414  W2        7237            0.0000000000
     21711      7237  TIP3      H2             28.5428112922      -22.3680263765       22.8777058414  W2        7237            0.0000000000
     21712      7238  TIP3      OH2            29.8208812922      -18.2660363765       12.4348358414  W2        7238            0.0000000000
     21713      7238  TIP3      H1             29.7454812922      -18.3873163765       11.4883558414  W2        7238            0.0000000000
     21714      7238  TIP3      H2             29.8537512922      -17.3167663765       12.5532958414  W2        7238            0.0000000000
     21715      7239  TIP3      OH2            23.4742612922      -19.4773363765       14.2157358414  W2        7239            0.0000000000
     21716      7239  TIP3      H1             23.6263012922      -19.8252963765       15.0943858414  W2        7239            0.0000000000
     21717      7239  TIP3      H2             22.6233012922      -19.8336063765       13.9604558414  W2        7239            0.0000000000
     21718      7240  TIP3      OH2            32.9224812922      -19.1120163765        9.4370758414  W2        7240            0.0000000000
     21719      7240  TIP3      H1             33.2973212922      -19.8564063765        8.9663358414  W2        7240            0.0000000000
     21720      7240  TIP3      H2             32.9268512922      -19.3819563765       10.3554058414  W2        7240            0.0000000000
     21721      7241  TIP3      OH2            32.5912912922      -19.1863063765       12.1862958414  W2        7241            0.0000000000
     21722      7241  TIP3      H1             31.6562712922      -19.0861163765       12.3649958414  W2        7241            0.0000000000
     21723      7241  TIP3      H2             32.8714812922      -19.8957063765       12.7646158414  W2        7241            0.0000000000
     21724      7242  TIP3      OH2            35.5798812922      -30.1190763765       24.2328558414  W2        7242            0.0000000000
     21725      7242  TIP3      H1             35.1725612922      -29.6385163765       23.5121858414  W2        7242            0.0000000000
     21726      7242  TIP3      H2             35.6204512922      -31.0244763765       23.9249358414  W2        7242            0.0000000000
     21727      7243  TIP3      OH2            22.7288312922      -23.7351363765       22.2295258414  W2        7243            0.0000000000
     21728      7243  TIP3      H1             22.9449612922      -24.0965763765       23.0891058414  W2        7243            0.0000000000
     21729      7243  TIP3      H2             21.8733012922      -24.1097563765       22.0198758414  W2        7243            0.0000000000
     21730      7244  TIP3      OH2            25.3476312922      -35.2650863765       18.2249458414  W2        7244            0.0000000000
     21731      7244  TIP3      H1             24.4860012922      -35.3522663765       17.8172358414  W2        7244            0.0000000000
     21732      7244  TIP3      H2             25.3252012922      -34.4090763765       18.6527058414  W2        7244            0.0000000000
     21733      7245  TIP3      OH2            30.0104112922      -35.5430463765       21.5996458414  W2        7245            0.0000000000
     21734      7245  TIP3      H1             30.4307212922      -35.9583363765       22.3527058414  W2        7245            0.0000000000
     21735      7245  TIP3      H2             29.0773712922      -35.7217163765       21.7168458414  W2        7245            0.0000000000
     21736      7246  TIP3      OH2            33.3369012922      -31.7875263765       22.4530958414  W2        7246            0.0000000000
     21737      7246  TIP3      H1             32.8228512922      -31.9133063765       23.2506958414  W2        7246            0.0000000000
     21738      7246  TIP3      H2             33.1813712922      -30.8752163765       22.2087158414  W2        7246            0.0000000000
     21739      7247  TIP3      OH2            34.0993912922      -26.9265263765        8.2143958414  W2        7247            0.0000000000
     21740      7247  TIP3      H1             34.1414712922      -27.1491363765        7.2843958414  W2        7247            0.0000000000
     21741      7247  TIP3      H2             34.9486012922      -26.5278163765        8.4043858414  W2        7247            0.0000000000
     21742      7248  TIP3      OH2            29.6721412922      -33.0507063765        8.8847258414  W2        7248            0.0000000000
     21743      7248  TIP3      H1             29.4186212922      -33.0315463765        9.8075358414  W2        7248            0.0000000000
     21744      7248  TIP3      H2             29.4153512922      -33.9221663765        8.5833458414  W2        7248            0.0000000000
     21745      7249  TIP3      OH2            25.4386412922      -30.2996363765       19.3199658414  W2        7249            0.0000000000
     21746      7249  TIP3      H1             24.7968512922      -30.3399063765       20.0289758414  W2        7249            0.0000000000
     21747      7249  TIP3      H2             25.4758412922      -29.3731663765       19.0822658414  W2        7249            0.0000000000
     21748      7250  TIP3      OH2            25.4355512922      -30.0786263765       14.2319658414  W2        7250            0.0000000000
     21749      7250  TIP3      H1             24.5428412922      -30.4190163765       14.1733458414  W2        7250            0.0000000000
     21750      7250  TIP3      H2             25.8862112922      -30.4555363765       13.4762858414  W2        7250            0.0000000000
     21751      7251  TIP3      OH2            30.9711012922      -29.6625963765       13.0490458414  W2        7251            0.0000000000
     21752      7251  TIP3      H1             30.5621312922      -28.8477363765       12.7575258414  W2        7251            0.0000000000
     21753      7251  TIP3      H2             31.6917212922      -29.8025863765       12.4347558414  W2        7251            0.0000000000
     21754      7252  TIP3      OH2            30.0732612922      -29.4869563765       24.5371158414  W2        7252            0.0000000000
     21755      7252  TIP3      H1             29.5106412922      -30.1917963765       24.8578958414  W2        7252            0.0000000000
     21756      7252  TIP3      H2             30.8996012922      -29.6077663765       25.0048758414  W2        7252            0.0000000000
     21757      7253  TIP3      OH2            31.9758712922      -30.2165563765       15.8630158414  W2        7253            0.0000000000
     21758      7253  TIP3      H1             31.7803212922      -29.6108763765       15.1480758414  W2        7253            0.0000000000
     21759      7253  TIP3      H2             32.1571312922      -31.0500363765       15.4286458414  W2        7253            0.0000000000
     21760      7254  TIP3      OH2            23.1886912922      -29.9792863765       21.1871658414  W2        7254            0.0000000000
     21761      7254  TIP3      H1             23.1506312922      -29.5791263765       22.0558758414  W2        7254            0.0000000000
     21762      7254  TIP3      H2             22.6978012922      -30.7960463765       21.2774558414  W2        7254            0.0000000000
     21763      7255  TIP3      OH2            26.5544312922      -32.6050563765        7.9857658414  W2        7255            0.0000000000
     21764      7255  TIP3      H1             26.1235012922      -33.0500463765        8.7155058414  W2        7255            0.0000000000
     21765      7255  TIP3      H2             25.8363012922      -32.2334263765        7.4735158414  W2        7255            0.0000000000
     21766      7256  TIP3      OH2            19.7967712922      -32.8631063765       15.0376358414  W2        7256            0.0000000000
     21767      7256  TIP3      H1             20.4275412922      -32.8918963765       15.7570258414  W2        7256            0.0000000000
     21768      7256  TIP3      H2             20.2462012922      -33.2882363765       14.3072258414  W2        7256            0.0000000000
     21769      7257  TIP3      OH2            21.0709812922      -32.1169063765       10.4616758414  W2        7257            0.0000000000
     21770      7257  TIP3      H1             21.5451512922      -31.5259163765        9.8767658414  W2        7257            0.0000000000
     21771      7257  TIP3      H2             20.3536212922      -31.5866163765       10.8086858414  W2        7257            0.0000000000
     21772      7258  TIP3      OH2            31.2397912922      -28.5784263765       20.5342558414  W2        7258            0.0000000000
     21773      7258  TIP3      H1             31.5632712922      -29.2094563765       19.8913058414  W2        7258            0.0000000000
     21774      7258  TIP3      H2             30.7997212922      -29.1132063765       21.1949958414  W2        7258            0.0000000000
     21775      7259  TIP3      OH2            28.0170812922      -32.6508763765       15.3183758414  W2        7259            0.0000000000
     21776      7259  TIP3      H1             27.1061912922      -32.5941963765       15.6069758414  W2        7259            0.0000000000
     21777      7259  TIP3      H2             28.5223712922      -32.7113263765       16.1290958414  W2        7259            0.0000000000
     21778      7260  TIP3      OH2            22.8454212922      -31.0222463765       14.1451358414  W2        7260            0.0000000000
     21779      7260  TIP3      H1             21.9562212922      -30.9226963765       13.8050958414  W2        7260            0.0000000000
     21780      7260  TIP3      H2             23.1419112922      -31.8639463765       13.7989258414  W2        7260            0.0000000000
     21781      7261  TIP3      OH2            26.4986012922      -31.0219863765       11.8015958414  W2        7261            0.0000000000
     21782      7261  TIP3      H1             27.4301512922      -30.8929863765       11.9799058414  W2        7261            0.0000000000
     21783      7261  TIP3      H2             26.2836312922      -30.3525563765       11.1520658414  W2        7261            0.0000000000
     21784      7262  TIP3      OH2            32.4222712922      -33.4162463765       18.5825558414  W2        7262            0.0000000000
     21785      7262  TIP3      H1             31.7454312922      -33.2849363765       19.2465258414  W2        7262            0.0000000000
     21786      7262  TIP3      H2             31.9367612922      -33.5712963765       17.7723258414  W2        7262            0.0000000000
     21787      7263  TIP3      OH2            25.1726212922      -29.8277663765        9.3682058414  W2        7263            0.0000000000
     21788      7263  TIP3      H1             24.6301312922      -30.2073863765        8.6769658414  W2        7263            0.0000000000
     21789      7263  TIP3      H2             26.0061112922      -29.6332963765        8.9396158414  W2        7263            0.0000000000
     21790      7264  TIP3      OH2            35.7097812922      -17.7447063765       24.8593158414  W2        7264            0.0000000000
     21791      7264  TIP3      H1             35.9096512922      -17.3205163765       24.0248458414  W2        7264            0.0000000000
     21792      7264  TIP3      H2             36.3651512922      -17.4008863765       25.4663558414  W2        7264            0.0000000000
     21793      7265  TIP3      OH2            23.3077612922      -25.2705763765       24.4673658414  W2        7265            0.0000000000
     21794      7265  TIP3      H1             24.0400012922      -25.0159863765       25.0288158414  W2        7265            0.0000000000
     21795      7265  TIP3      H2             22.5276312922      -25.0660363765       24.9829058414  W2        7265            0.0000000000
     21796      7266  TIP3      OH2            29.3370512922      -29.8635763765       17.2053358414  W2        7266            0.0000000000
     21797      7266  TIP3      H1             29.9013912922      -30.4099163765       16.6582958414  W2        7266            0.0000000000
     21798      7266  TIP3      H2             29.1893912922      -30.3853863765       17.9940958414  W2        7266            0.0000000000
     21799      7267  TIP3      OH2            24.3390212922      -33.7269663765       13.6238158414  W2        7267            0.0000000000
     21800      7267  TIP3      H1             24.0219712922      -34.6294363765       13.5883558414  W2        7267            0.0000000000
     21801      7267  TIP3      H2             25.1204312922      -33.7252263765       13.0709758414  W2        7267            0.0000000000
     21802      7268  TIP3      OH2            27.9636412922      -31.4749663765       19.6193758414  W2        7268            0.0000000000
     21803      7268  TIP3      H1             27.1281712922      -31.0210163765       19.7296158414  W2        7268            0.0000000000
     21804      7268  TIP3      H2             28.4877012922      -31.1991163765       20.3713658414  W2        7268            0.0000000000
     21805      7269  TIP3      OH2            28.5079012922      -25.2621963765       11.3040158414  W2        7269            0.0000000000
     21806      7269  TIP3      H1             27.7630012922      -25.7696663765       10.9818058414  W2        7269            0.0000000000
     21807      7269  TIP3      H2             28.3736212922      -25.2133963765       12.2504958414  W2        7269            0.0000000000
     21808      7270  TIP3      OH2            35.6577912922      -26.1293763765       20.0907758414  W2        7270            0.0000000000
     21809      7270  TIP3      H1             36.2996712922      -25.6727463765       19.5469958414  W2        7270            0.0000000000
     21810      7270  TIP3      H2             34.8274812922      -26.0161363765       19.6281858414  W2        7270            0.0000000000
     21811      7271  TIP3      OH2            32.4055812922      -32.4482063765        9.5032758414  W2        7271            0.0000000000
     21812      7271  TIP3      H1             31.4670012922      -32.3366463765        9.3521558414  W2        7271            0.0000000000
     21813      7271  TIP3      H2             32.7027912922      -31.5915163765        9.8098458414  W2        7271            0.0000000000
     21814      7272  TIP3      OH2            30.0271112922      -25.0778663765       22.5409258414  W2        7272            0.0000000000
     21815      7272  TIP3      H1             29.6817212922      -25.4596263765       23.3478858414  W2        7272            0.0000000000
     21816      7272  TIP3      H2             29.8271212922      -24.1445063765       22.6122158414  W2        7272            0.0000000000
     21817      7273  TIP3      OH2            33.1239312922      -30.5809363765       11.1640158414  W2        7273            0.0000000000
     21818      7273  TIP3      H1             34.0158312922      -30.7184363765       11.4831358414  W2        7273            0.0000000000
     21819      7273  TIP3      H2             33.1802912922      -29.7903263765       10.6273658414  W2        7273            0.0000000000
     21820      7274  TIP3      OH2            23.6327312922      -25.9671963765       17.0738058414  W2        7274            0.0000000000
     21821      7274  TIP3      H1             24.3774512922      -25.9696263765       16.4724558414  W2        7274            0.0000000000
     21822      7274  TIP3      H2             23.7103912922      -26.7908163765       17.5553158414  W2        7274            0.0000000000
     21823      7275  TIP3      OH2            30.6333112922      -23.8037663765       10.3294758414  W2        7275            0.0000000000
     21824      7275  TIP3      H1             30.3381512922      -22.9769763765       10.7109558414  W2        7275            0.0000000000
     21825      7275  TIP3      H2             29.9303112922      -24.4230763765       10.5256158414  W2        7275            0.0000000000
     21826      7276  TIP3      OH2            20.6407012922      -27.5065063765       22.3886558414  W2        7276            0.0000000000
     21827      7276  TIP3      H1             20.8635612922      -27.9245463765       23.2204058414  W2        7276            0.0000000000
     21828      7276  TIP3      H2             20.0387112922      -28.1190063765       21.9659358414  W2        7276            0.0000000000
     21829      7277  TIP3      OH2            27.6571912922      -27.9895163765       24.6016258414  W2        7277            0.0000000000
     21830      7277  TIP3      H1             27.3612712922      -28.1552163765       23.7065358414  W2        7277            0.0000000000
     21831      7277  TIP3      H2             28.5887112922      -28.2094863765       24.5910158414  W2        7277            0.0000000000
     21832      7278  TIP3      OH2            32.2774712922      -22.6163163765       22.4914258414  W2        7278            0.0000000000
     21833      7278  TIP3      H1             31.3769012922      -22.4330563765       22.2238158414  W2        7278            0.0000000000
     21834      7278  TIP3      H2             32.3115812922      -22.3573863765       23.4123058414  W2        7278            0.0000000000
     21835      7279  TIP3      OH2            36.3039712922      -21.5854863765       11.3238958414  W2        7279            0.0000000000
     21836      7279  TIP3      H1             35.9310812922      -22.4111063765       11.6329558414  W2        7279            0.0000000000
     21837      7279  TIP3      H2             36.5813212922      -21.7685463765       10.4262358414  W2        7279            0.0000000000
     21838      7280  TIP3      OH2            33.4643612922      -26.7775363765       18.3450858414  W2        7280            0.0000000000
     21839      7280  TIP3      H1             32.5360512922      -27.0093463765       18.3180158414  W2        7280            0.0000000000
     21840      7280  TIP3      H2             33.9154712922      -27.5545563765       18.0149658414  W2        7280            0.0000000000
     21841      7281  TIP3      OH2            26.0076712922      -22.4493763765       14.4779558414  W2        7281            0.0000000000
     21842      7281  TIP3      H1             26.5348912922      -21.6759363765       14.2778358414  W2        7281            0.0000000000
     21843      7281  TIP3      H2             25.1275212922      -22.2244563765       14.1763558414  W2        7281            0.0000000000
     21844      7282  TIP3      OH2            21.7624412922      -27.5869663765        9.0651958414  W2        7282            0.0000000000
     21845      7282  TIP3      H1             22.3784312922      -26.9602463765        9.4446758414  W2        7282            0.0000000000
     21846      7282  TIP3      H2             20.9007012922      -27.2709863765        9.3368458414  W2        7282            0.0000000000
     21847      7283  TIP3      OH2            27.4349012922      -24.7863863765       14.0543858414  W2        7283            0.0000000000
     21848      7283  TIP3      H1             27.1939012922      -23.8609463765       14.0959158414  W2        7283            0.0000000000
     21849      7283  TIP3      H2             26.6942612922      -25.2452563765       14.4507758414  W2        7283            0.0000000000
     21850      7284  TIP3      OH2            27.9495612922      -20.6370263765       20.3694958414  W2        7284            0.0000000000
     21851      7284  TIP3      H1             28.3120312922      -19.7824663765       20.1359358414  W2        7284            0.0000000000
     21852      7284  TIP3      H2             28.4810812922      -20.9288663765       21.1101258414  W2        7284            0.0000000000
     21853      7285  TIP3      OH2            26.1179812922      -19.7646263765       13.5996058414  W2        7285            0.0000000000
     21854      7285  TIP3      H1             25.1680312922      -19.6588863765       13.6509358414  W2        7285            0.0000000000
     21855      7285  TIP3      H2             26.4697912922      -18.9438863765       13.9443558414  W2        7285            0.0000000000
     21856      7286  TIP3      OH2            31.4936412922      -24.5379563765       20.0700558414  W2        7286            0.0000000000
     21857      7286  TIP3      H1             31.0677712922      -24.7657863765       20.8964558414  W2        7286            0.0000000000
     21858      7286  TIP3      H2             32.0742212922      -25.2767763765       19.8875858414  W2        7286            0.0000000000
     21859      7287  TIP3      OH2            33.6965312922      -23.6089063765        9.1439558414  W2        7287            0.0000000000
     21860      7287  TIP3      H1             34.0498412922      -23.9889263765        9.9483058414  W2        7287            0.0000000000
     21861      7287  TIP3      H2             32.7478812922      -23.7024263765        9.2308858414  W2        7287            0.0000000000
     21862      7288  TIP3      OH2            34.1520612922      -19.9860063765       22.5395358414  W2        7288            0.0000000000
     21863      7288  TIP3      H1             33.5503812922      -20.5417163765       22.0441658414  W2        7288            0.0000000000
     21864      7288  TIP3      H2             34.4334312922      -19.3190263765       21.9132758414  W2        7288            0.0000000000
     21865      7289  TIP3      OH2            22.2746512922      -32.7532363765       21.9467958414  W2        7289            0.0000000000
     21866      7289  TIP3      H1             21.3818812922      -32.4146963765       21.8791958414  W2        7289            0.0000000000
     21867      7289  TIP3      H2             22.1759312922      -33.6086263765       22.3648758414  W2        7289            0.0000000000
     21868      7290  TIP3      OH2            34.5624612922      -24.9367063765       11.3707458414  W2        7290            0.0000000000
     21869      7290  TIP3      H1             34.2852212922      -25.6647763765       11.9268558414  W2        7290            0.0000000000
     21870      7290  TIP3      H2             35.4897612922      -24.8175063765       11.5760058414  W2        7290            0.0000000000
     21871      7291  TIP3      OH2            21.9258512922      -20.9487963765       20.3817358414  W2        7291            0.0000000000
     21872      7291  TIP3      H1             22.1428812922      -21.8805563765       20.3507058414  W2        7291            0.0000000000
     21873      7291  TIP3      H2             22.1722012922      -20.6742963765       21.2650158414  W2        7291            0.0000000000
     21874      7292  TIP3      OH2            27.7873112922      -22.4972963765        7.5909558414  W2        7292            0.0000000000
     21875      7292  TIP3      H1             28.0262912922      -23.2454863765        7.0438458414  W2        7292            0.0000000000
     21876      7292  TIP3      H2             27.5184412922      -22.8851263765        8.4237358414  W2        7292            0.0000000000
     21877      7293  TIP3      OH2            26.7243712922      -22.9269163765       10.0472158414  W2        7293            0.0000000000
     21878      7293  TIP3      H1             26.8711712922      -23.4469363765       10.8373058414  W2        7293            0.0000000000
     21879      7293  TIP3      H2             26.7215412922      -22.0201563765       10.3538058414  W2        7293            0.0000000000
     21880      7294  TIP3      OH2            23.1774812922      -25.6745863765       10.5577558414  W2        7294            0.0000000000
     21881      7294  TIP3      H1             22.4914112922      -25.3223363765       11.1247258414  W2        7294            0.0000000000
     21882      7294  TIP3      H2             23.7002712922      -24.9116263765       10.3111858414  W2        7294            0.0000000000
     21883      7295  TIP3      OH2            31.0089912922      -33.0122063765       20.8366558414  W2        7295            0.0000000000
     21884      7295  TIP3      H1             31.7077812922      -32.9383363765       21.4866258414  W2        7295            0.0000000000
     21885      7295  TIP3      H2             30.6281312922      -33.8767063765       20.9909458414  W2        7295            0.0000000000
     21886      7296  TIP3      OH2            31.7934812922      -33.3600363765       11.9338858414  W2        7296            0.0000000000
     21887      7296  TIP3      H1             32.0133112922      -32.8884963765       11.1304258414  W2        7296            0.0000000000
     21888      7296  TIP3      H2             32.3518812922      -32.9657763765       12.6039458414  W2        7296            0.0000000000
     21889      7297  TIP3      OH2            29.4620912922      -21.2295563765       10.7966358414  W2        7297            0.0000000000
     21890      7297  TIP3      H1             28.6457012922      -20.7325863765       10.8490658414  W2        7297            0.0000000000
     21891      7297  TIP3      H2             29.9917212922      -20.7542063765       10.1565158414  W2        7297            0.0000000000
     21892      7298  TIP3      OH2            28.9934712922      -31.6321563765       12.7687258414  W2        7298            0.0000000000
     21893      7298  TIP3      H1             29.8057312922      -31.1278363765       12.8148958414  W2        7298            0.0000000000
     21894      7298  TIP3      H2             28.7487712922      -31.7771863765       13.6826858414  W2        7298            0.0000000000
     21895      7299  TIP3      OH2            29.5291112922      -30.6458863765       21.9533858414  W2        7299            0.0000000000
     21896      7299  TIP3      H1             29.6481412922      -30.0723463765       22.7104258414  W2        7299            0.0000000000
     21897      7299  TIP3      H2             30.1845712922      -31.3339463765       22.0681658414  W2        7299            0.0000000000
     21898      7300  TIP3      OH2            29.8771412922      -34.5508563765       13.7068358414  W2        7300            0.0000000000
     21899      7300  TIP3      H1             29.5304912922      -33.9337963765       14.3512658414  W2        7300            0.0000000000
     21900      7300  TIP3      H2             30.5358312922      -34.0502863765       13.2253858414  W2        7300            0.0000000000
     21901      7301  TIP3      OH2            26.8004012922      -20.1858363765       10.7783258414  W2        7301            0.0000000000
     21902      7301  TIP3      H1             26.9612712922      -19.3860863765       10.2775858414  W2        7301            0.0000000000
     21903      7301  TIP3      H2             26.6031812922      -19.8792363765       11.6633858414  W2        7301            0.0000000000
     21904      7302  TIP3      OH2            25.5348412922      -33.4879163765       10.3940858414  W2        7302            0.0000000000
     21905      7302  TIP3      H1             25.4513212922      -32.5996063765       10.7407258414  W2        7302            0.0000000000
     21906      7302  TIP3      H2             26.4248712922      -33.7532463765       10.6257658414  W2        7302            0.0000000000
     21907      7303  TIP3      OH2            35.7336912922      -32.7388563765       22.7883558414  W2        7303            0.0000000000
     21908      7303  TIP3      H1             34.8172712922      -32.4766863765       22.7007258414  W2        7303            0.0000000000
     21909      7303  TIP3      H2             36.0691912922      -32.7419563765       21.8918858414  W2        7303            0.0000000000
     21910      7304  TIP3      OH2            34.3357912922      -28.9887563765       16.8840858414  W2        7304            0.0000000000
     21911      7304  TIP3      H1             33.5382312922      -29.4037363765       16.5555858414  W2        7304            0.0000000000
     21912      7304  TIP3      H2             34.7809012922      -29.6793863765       17.3751358414  W2        7304            0.0000000000
     21913      7305  TIP3      OH2            23.7933712922      -23.0606963765        9.4545358414  W2        7305            0.0000000000
     21914      7305  TIP3      H1             24.3855212922      -22.3612163765        9.7307758414  W2        7305            0.0000000000
     21915      7305  TIP3      H2             24.2526712922      -23.4937463765        8.7349958414  W2        7305            0.0000000000
     21916      7306  TIP3      OH2            22.1092912922      -30.3963963765        8.5704758414  W2        7306            0.0000000000
     21917      7306  TIP3      H1             22.0645512922      -29.4570863765        8.7491758414  W2        7306            0.0000000000
     21918      7306  TIP3      H2             21.2216112922      -30.6319063765        8.3006858414  W2        7306            0.0000000000
     21919      7307  TIP3      OH2            35.4222512922      -19.7325063765       18.5064358414  W2        7307            0.0000000000
     21920      7307  TIP3      H1             35.2666812922      -19.0540663765       17.8493658414  W2        7307            0.0000000000
     21921      7307  TIP3      H2             36.3548912922      -19.6605763765       18.7094958414  W2        7307            0.0000000000
     21922      7308  TIP3      OH2            22.9174912922      -35.6147363765       17.2435758414  W2        7308            0.0000000000
     21923      7308  TIP3      H1             22.6884712922      -35.5554863765       16.3160758414  W2        7308            0.0000000000
     21924      7308  TIP3      H2             22.4748312922      -36.4061863765       17.5499858414  W2        7308            0.0000000000
     21925      7309  TIP3      OH2            21.8478212922      -21.6740263765       13.4041558414  W2        7309            0.0000000000
     21926      7309  TIP3      H1             21.0156812922      -21.2017563765       13.4312958414  W2        7309            0.0000000000
     21927      7309  TIP3      H2             22.3936512922      -21.1642663765       12.8054658414  W2        7309            0.0000000000
     21928      7310  TIP3      OH2            21.1361912922      -19.0616563765       24.7339558414  W2        7310            0.0000000000
     21929      7310  TIP3      H1             21.6764112922      -19.2782563765       25.4938758414  W2        7310            0.0000000000
     21930      7310  TIP3      H2             20.6549912922      -19.8670563765       24.5442058414  W2        7310            0.0000000000
     21931      7311  TIP3      OH2            25.7335312922      -20.1422163765       26.3543758414  W2        7311            0.0000000000
     21932      7311  TIP3      H1             26.5012512922      -20.6011363765       26.6952958414  W2        7311            0.0000000000
     21933      7311  TIP3      H2             25.7121512922      -20.3682363765       25.4244958414  W2        7311            0.0000000000
     21934      7312  TIP3      OH2            29.8254912922      -20.6341563765        7.7295558414  W2        7312            0.0000000000
     21935      7312  TIP3      H1             29.1815912922      -21.2652963765        8.0509258414  W2        7312            0.0000000000
     21936      7312  TIP3      H2             30.5873212922      -21.1653563765        7.4979058414  W2        7312            0.0000000000
     21937      7313  TIP3      OH2            32.3104012922      -21.7621063765       25.0835258414  W2        7313            0.0000000000
     21938      7313  TIP3      H1             31.9593512922      -22.6188063765       25.3265658414  W2        7313            0.0000000000
     21939      7313  TIP3      H2             33.0367212922      -21.6194363765       25.6904258414  W2        7313            0.0000000000
     21940      7314  TIP3      OH2            34.4297812922      -20.8171663765        7.9633558414  W2        7314            0.0000000000
     21941      7314  TIP3      H1             34.7128212922      -21.6116463765        8.4160458414  W2        7314            0.0000000000
     21942      7314  TIP3      H2             35.1695712922      -20.5840663765        7.4024658414  W2        7314            0.0000000000
     21943      7315  TIP3      OH2            21.0431412922      -25.2512463765       25.6883858414  W2        7315            0.0000000000
     21944      7315  TIP3      H1             21.1871912922      -26.1531763765       25.4020558414  W2        7315            0.0000000000
     21945      7315  TIP3      H2             20.2708812922      -24.9650363765       25.2006158414  W2        7315            0.0000000000
     21946      7316  TIP3      OH2            25.3845112922      -24.9076763765        7.8208458414  W2        7316            0.0000000000
     21947      7316  TIP3      H1             25.4489212922      -25.7017163765        8.3514858414  W2        7316            0.0000000000
     21948      7316  TIP3      H2             26.0374312922      -25.0263963765        7.1310458414  W2        7316            0.0000000000
     21949      7317  TIP3      OH2            27.6987512922      -25.2814363765       25.1210258414  W2        7317            0.0000000000
     21950      7317  TIP3      H1             27.3701312922      -25.0106263765       24.2637658414  W2        7317            0.0000000000
     21951      7317  TIP3      H2             27.8505712922      -26.2224563765       25.0335258414  W2        7317            0.0000000000
     21952      7318  TIP3      OH2            30.7368512922      -23.8605063765        7.5566458414  W2        7318            0.0000000000
     21953      7318  TIP3      H1             30.4682612922      -23.6802963765        8.4575358414  W2        7318            0.0000000000
     21954      7318  TIP3      H2             30.5304112922      -24.7858863765        7.4252258414  W2        7318            0.0000000000
     21955      7319  TIP3      OH2            33.4332712922      -25.3657063765       22.5042558414  W2        7319            0.0000000000
     21956      7319  TIP3      H1             34.1787512922      -24.7773363765       22.3846558414  W2        7319            0.0000000000
     21957      7319  TIP3      H2             32.6759512922      -24.7837363765       22.5675658414  W2        7319            0.0000000000
     21958      7320  TIP3      OH2            21.8757912922      -28.0509163765       25.1083158414  W2        7320            0.0000000000
     21959      7320  TIP3      H1             22.2839112922      -28.9082563765       24.9873758414  W2        7320            0.0000000000
     21960      7320  TIP3      H2             21.6155512922      -28.0367863765       26.0293458414  W2        7320            0.0000000000
     21961      7321  TIP3      OH2            26.5338912922      -26.9350563765       10.1266458414  W2        7321            0.0000000000
     21962      7321  TIP3      H1             26.0740912922      -27.4192263765       10.8124958414  W2        7321            0.0000000000
     21963      7321  TIP3      H2             26.7887612922      -27.6035163765        9.4906958414  W2        7321            0.0000000000
     21964      7322  TIP3      OH2            25.8228212922      -29.0423463765       22.4826058414  W2        7322            0.0000000000
     21965      7322  TIP3      H1             25.2044312922      -28.3676863765       22.7630758414  W2        7322            0.0000000000
     21966      7322  TIP3      H2             26.1669412922      -28.7209563765       21.6492258414  W2        7322            0.0000000000
     21967      7323  TIP3      OH2            27.6049312922      -28.6918763765        8.3889658414  W2        7323            0.0000000000
     21968      7323  TIP3      H1             27.4244312922      -28.8467563765        7.4617958414  W2        7323            0.0000000000
     21969      7323  TIP3      H2             28.5549812922      -28.5840063765        8.4337558414  W2        7323            0.0000000000
     21970      7324  TIP3      OH2            30.8426412922      -26.5708163765       25.7600858414  W2        7324            0.0000000000
     21971      7324  TIP3      H1             31.7957612922      -26.4869063765       25.7326858414  W2        7324            0.0000000000
     21972      7324  TIP3      H2             30.6821012922      -27.2826363765       26.3795758414  W2        7324            0.0000000000
     21973      7325  TIP3      OH2            26.1621912922      -31.6872663765       23.5649158414  W2        7325            0.0000000000
     21974      7325  TIP3      H1             26.3122812922      -32.4161363765       22.9628858414  W2        7325            0.0000000000
     21975      7325  TIP3      H2             26.1644312922      -30.9100963765       23.0061358414  W2        7325            0.0000000000
     21976      7326  TIP3      OH2            26.5747612922      -33.3176863765       21.0576558414  W2        7326            0.0000000000
     21977      7326  TIP3      H1             27.1105112922      -32.8660163765       20.4055858414  W2        7326            0.0000000000
     21978      7326  TIP3      H2             25.7227212922      -33.4257063765       20.6350658414  W2        7326            0.0000000000
     21979      7327  TIP3      OH2            28.1566012922      -27.8780663765       21.2971758414  W2        7327            0.0000000000
     21980      7327  TIP3      H1             28.9070812922      -28.0343163765       20.7239558414  W2        7327            0.0000000000
     21981      7327  TIP3      H2             27.8174312922      -27.0264063765       21.0217258414  W2        7327            0.0000000000
     21982      7328  TIP3      OH2            32.5722212922      -30.0628863765       26.3257058414  W2        7328            0.0000000000
     21983      7328  TIP3      H1             32.7643512922      -30.9939463765       26.2141558414  W2        7328            0.0000000000
     21984      7328  TIP3      H2             33.4298512922      -29.6379363765       26.3152458414  W2        7328            0.0000000000
     21985      7329  TIP3      OH2            33.8889412922      -27.2743663765       24.4029758414  W2        7329            0.0000000000
     21986      7329  TIP3      H1             33.6074412922      -26.5649063765       23.8253558414  W2        7329            0.0000000000
     21987      7329  TIP3      H2             34.8313712922      -27.3470663765       24.2520958414  W2        7329            0.0000000000
     21988      7330  TIP3      OH2            24.6408212922      -30.4889163765       25.4764758414  W2        7330            0.0000000000
     21989      7330  TIP3      H1             23.8737212922      -31.0214363765       25.2662358414  W2        7330            0.0000000000
     21990      7330  TIP3      H2             25.3197212922      -30.7988763765       24.8771058414  W2        7330            0.0000000000
     21991      7331  TIP3      OH2            27.3803112922      -35.8611163765       21.4890158414  W2        7331            0.0000000000
     21992      7331  TIP3      H1             27.2822712922      -34.9147963765       21.3836358414  W2        7331            0.0000000000
     21993      7331  TIP3      H2             26.6379312922      -36.2337363765       21.0133658414  W2        7331            0.0000000000
     21994      7332  TIP3      OH2            28.6443612922      -31.5395763765       25.0528558414  W2        7332            0.0000000000
     21995      7332  TIP3      H1             28.4089012922      -31.7589063765       25.9543458414  W2        7332            0.0000000000
     21996      7332  TIP3      H2             27.8610512922      -31.7464563765       24.5431058414  W2        7332            0.0000000000
     21997      7333  TIP3      OH2            31.3600212922      -32.4122263765       24.1282058414  W2        7333            0.0000000000
     21998      7333  TIP3      H1             30.4125612922      -32.3802563765       24.2605358414  W2        7333            0.0000000000
     21999      7333  TIP3      H2             31.6726912922      -33.0375163765       24.7820258414  W2        7333            0.0000000000
     22000      7334  TIP3      OH2            32.9941712922      -33.7781163765       26.1333958414  W2        7334            0.0000000000
     22001      7334  TIP3      H1             32.8973512922      -34.7303863765       26.1275858414  W2        7334            0.0000000000
     22002      7334  TIP3      H2             32.6724812922      -33.5094363765       26.9939458414  W2        7334            0.0000000000
     22003      7335  TIP3      OH2            22.8211012922      -32.5685363765       25.1809458414  W2        7335            0.0000000000
     22004      7335  TIP3      H1             23.0328412922      -33.2749263765       24.5706958414  W2        7335            0.0000000000
     22005      7335  TIP3      H2             22.7098512922      -33.0059363765       26.0250658414  W2        7335            0.0000000000
     22006      7336  TIP3      OH2            27.6021212922      -36.5673763765       24.1602958414  W2        7336            0.0000000000
     22007      7336  TIP3      H1             28.3139612922      -37.2071563765       24.1462058414  W2        7336            0.0000000000
     22008      7336  TIP3      H2             27.5011612922      -36.3005463765       23.2466058414  W2        7336            0.0000000000
     22009      7337  TIP3      OH2            27.9558712922      -34.8845363765       26.2139258414  W2        7337            0.0000000000
     22010      7337  TIP3      H1             27.8240912922      -35.3601563765       25.3937758414  W2        7337            0.0000000000
     22011      7337  TIP3      H2             27.3566112922      -34.1401763765       26.1586358414  W2        7337            0.0000000000
     22012      7338  TIP3      OH2            27.5021012922      -18.0015063765        9.3903258414  W2        7338            0.0000000000
     22013      7338  TIP3      H1             28.4351712922      -17.8436363765        9.5341658414  W2        7338            0.0000000000
     22014      7338  TIP3      H2             27.2379812922      -17.3262063765        8.7654758414  W2        7338            0.0000000000
     22015      7339  TIP3      OH2            21.0705912922      -23.3651263765        8.8731358414  W2        7339            0.0000000000
     22016      7339  TIP3      H1             21.9845112922      -23.2862363765        9.1465258414  W2        7339            0.0000000000
     22017      7339  TIP3      H2             21.0779012922      -24.0521663765        8.2066958414  W2        7339            0.0000000000
     22018      7340  TIP3      OH2            19.7196512922      -17.9722763765       13.9505258414  W2        7340            0.0000000000
     22019      7340  TIP3      H1             19.0723612922      -18.4341063765       13.4176458414  W2        7340            0.0000000000
     22020      7340  TIP3      H2             20.0741112922      -18.6439463765       14.5331458414  W2        7340            0.0000000000
     22021      7341  TIP3      OH2            20.5895712922      -19.8915763765       15.7551458414  W2        7341            0.0000000000
     22022      7341  TIP3      H1             20.2552512922      -20.7718463765       15.9271658414  W2        7341            0.0000000000
     22023      7341  TIP3      H2             20.8118112922      -19.5460763765       16.6197058414  W2        7341            0.0000000000
     22024      7342  TIP3      OH2            36.1520712922      -23.7250163765       26.2955658414  W2        7342            0.0000000000
     22025      7342  TIP3      H1             35.2861812922      -23.8300463765       26.6897958414  W2        7342            0.0000000000
     22026      7342  TIP3      H2             36.5286612922      -22.9666863765       26.7420358414  W2        7342            0.0000000000
     22027      7343  TIP3      OH2            36.0929512922      -21.7524063765       20.8879858414  W2        7343            0.0000000000
     22028      7343  TIP3      H1             35.4454812922      -21.4272563765       21.5135058414  W2        7343            0.0000000000
     22029      7343  TIP3      H2             35.5753512922      -22.1926363765       20.2138158414  W2        7343            0.0000000000
     22030      7344  TIP3      OH2            36.4648112922      -30.2744963765        8.5752258414  W2        7344            0.0000000000
     22031      7344  TIP3      H1             36.5612512922      -29.6077963765        7.8951958414  W2        7344            0.0000000000
     22032      7344  TIP3      H2             36.3247712922      -31.0898663765        8.0937758414  W2        7344            0.0000000000
     22033      7345  TIP3      OH2            35.6342812922      -28.8942563765       14.1962558414  W2        7345            0.0000000000
     22034      7345  TIP3      H1             35.4841612922      -29.8393963765       14.1760358414  W2        7345            0.0000000000
     22035      7345  TIP3      H2             35.2807312922      -28.6131163765       15.0401658414  W2        7345            0.0000000000
     22036      7346  TIP3      OH2            20.6695212922      -26.8160363765       18.2066358414  W2        7346            0.0000000000
     22037      7346  TIP3      H1             20.8538112922      -26.8978663765       17.2709258414  W2        7346            0.0000000000
     22038      7346  TIP3      H2             21.5188112922      -26.9403363765       18.6302758414  W2        7346            0.0000000000
     22039      7347  TIP3      OH2            36.4905712922      -26.9239263765       23.8350858414  W2        7347            0.0000000000
     22040      7347  TIP3      H1             37.0733012922      -27.6586963765       24.0268058414  W2        7347            0.0000000000
     22041      7347  TIP3      H2             37.0545012922      -26.1518963765       23.8816658414  W2        7347            0.0000000000
     22042      7348  TIP3      OH2            35.7121912922      -32.8665163765        7.6927758414  W2        7348            0.0000000000
     22043      7348  TIP3      H1             36.3227712922      -33.2378363765        8.3295958414  W2        7348            0.0000000000
     22044      7348  TIP3      H2             34.8753412922      -33.2878263765        7.8887758414  W2        7348            0.0000000000
     22045      7349  TIP3      OH2            35.3447612922      -31.3116763765       12.6587658414  W2        7349            0.0000000000
     22046      7349  TIP3      H1             35.6244712922      -32.2186363765       12.7829358414  W2        7349            0.0000000000
     22047      7349  TIP3      H2             36.1039312922      -30.8775263765       12.2696858414  W2        7349            0.0000000000
     22048      7350  TIP3      OH2            35.9565912922      -30.7299363765       18.0946558414  W2        7350            0.0000000000
     22049      7350  TIP3      H1             36.8893912922      -30.5179463765       18.0602558414  W2        7350            0.0000000000
     22050      7350  TIP3      H2             35.7213412922      -30.6287263765       19.0169558414  W2        7350            0.0000000000
     22051      7351  TIP3      OH2            35.9857812922      -29.9934063765       20.8705958414  W2        7351            0.0000000000
     22052      7351  TIP3      H1             35.1429112922      -29.7253663765       21.2365758414  W2        7351            0.0000000000
     22053      7351  TIP3      H2             36.4282112922      -29.1712163765       20.6597058414  W2        7351            0.0000000000
     22054      7352  TIP3      OH2            20.2670012922      -31.5455363765       24.3475158414  W2        7352            0.0000000000
     22055      7352  TIP3      H1             21.1864912922      -31.6677063765       24.5838258414  W2        7352            0.0000000000
     22056      7352  TIP3      H2             19.8174512922      -32.2955663765       24.7368658414  W2        7352            0.0000000000
     22057      7353  TIP3      OH2            35.9582412922      -34.0487463765       12.7069658414  W2        7353            0.0000000000
     22058      7353  TIP3      H1             36.1407412922      -34.4975963765       13.5324658414  W2        7353            0.0000000000
     22059      7353  TIP3      H2             35.3585312922      -34.6333063765       12.2434258414  W2        7353            0.0000000000
     22060      7354  TIP3      OH2            21.4882512922      -33.2333763765       17.2388058414  W2        7354            0.0000000000
     22061      7354  TIP3      H1             21.9334112922      -34.0251263765       17.5407758414  W2        7354            0.0000000000
     22062      7354  TIP3      H2             21.9545512922      -32.5168563765       17.6693658414  W2        7354            0.0000000000
     22063      7355  TIP3      OH2            19.7922812922      -30.2340763765       18.3078258414  W2        7355            0.0000000000
     22064      7355  TIP3      H1             20.2842612922      -30.4550263765       17.5170258414  W2        7355            0.0000000000
     22065      7355  TIP3      H2             20.1543712922      -29.3937363765       18.5887758414  W2        7355            0.0000000000
     22066      7356  TIP3      OH2            20.1059312922      -33.9761663765       12.3620658414  W2        7356            0.0000000000
     22067      7356  TIP3      H1             19.1807712922      -33.7675063765       12.2326158414  W2        7356            0.0000000000
     22068      7356  TIP3      H2             20.5599212922      -33.4920863765       11.6722958414  W2        7356            0.0000000000
     22069      7357  TIP3      OH2            34.8766512922      -18.9919963765       14.3078058414  W2        7357            0.0000000000
     22070      7357  TIP3      H1             35.5289412922      -19.3397863765       13.6997158414  W2        7357            0.0000000000
     22071      7357  TIP3      H2             35.3870312922      -18.5036763765       14.9537758414  W2        7357            0.0000000000
     22072      7358  TIP3      OH2            20.0694712922      -35.2382663765       20.7063158414  W2        7358            0.0000000000
     22073      7358  TIP3      H1             19.4045212922      -35.4842363765       21.3494058414  W2        7358            0.0000000000
     22074      7358  TIP3      H2             19.6266012922      -34.6162263765       20.1291158414  W2        7358            0.0000000000
     22075      7359  TIP3      OH2            22.2614012922      -22.0628563765       24.8508958414  W2        7359            0.0000000000
     22076      7359  TIP3      H1             21.4406512922      -21.8882063765       24.3903658414  W2        7359            0.0000000000
     22077      7359  TIP3      H2             22.0091812922      -22.1363863765       25.7713358414  W2        7359            0.0000000000
     22078      7360  TIP3      OH2            25.2156912922      -21.0887363765       21.1092958414  W2        7360            0.0000000000
     22079      7360  TIP3      H1             24.7908012922      -20.2788863765       20.8267558414  W2        7360            0.0000000000
     22080      7360  TIP3      H2             26.1199712922      -21.0033263765       20.8072758414  W2        7360            0.0000000000
     22081      7361  TIP3      OH2            29.5268312922      -19.6897363765       24.0686658414  W2        7361            0.0000000000
     22082      7361  TIP3      H1             29.7115812922      -20.0231263765       24.9466958414  W2        7361            0.0000000000
     22083      7361  TIP3      H2             30.3732812922      -19.3798763765       23.7465858414  W2        7361            0.0000000000
     22084      7362  TIP3      OH2            31.8718712922      -18.4038463765       23.3128058414  W2        7362            0.0000000000
     22085      7362  TIP3      H1             32.5487612922      -19.0366163765       23.0727258414  W2        7362            0.0000000000
     22086      7362  TIP3      H2             32.1937512922      -18.0027963765       24.1201358414  W2        7362            0.0000000000
     22087      7363  TIP3      OH2            22.6173612922      -17.8323463765       21.1568258414  W2        7363            0.0000000000
     22088      7363  TIP3      H1             21.8970012922      -17.3922463765       20.7055958414  W2        7363            0.0000000000
     22089      7363  TIP3      H2             22.2517612922      -18.0828763765       22.0052258414  W2        7363            0.0000000000
     22090      7364  TIP3      OH2            25.0846212922      -18.2319563765       20.1865458414  W2        7364            0.0000000000
     22091      7364  TIP3      H1             24.2198412922      -18.1601063765       20.5905558414  W2        7364            0.0000000000
     22092      7364  TIP3      H2             25.0295212922      -17.6852263765       19.4027958414  W2        7364            0.0000000000
     22093      7365  TIP3      OH2            29.7951812922      -18.3440663765       19.3621458414  W2        7365            0.0000000000
     22094      7365  TIP3      H1             29.3385812922      -17.8150963765       18.7079858414  W2        7365            0.0000000000
     22095      7365  TIP3      H2             29.9579812922      -17.7409263765       20.0873758414  W2        7365            0.0000000000
     22096      7366  TIP3      OH2            32.1228112922      -19.4661063765       20.3071758414  W2        7366            0.0000000000
     22097      7366  TIP3      H1             31.2181812922      -19.3010863765       20.0413858414  W2        7366            0.0000000000
     22098      7366  TIP3      H2             32.5516712922      -18.6128863765       20.2415158414  W2        7366            0.0000000000
     22099      7367  TIP3      OH2            34.7270012922      -17.8961963765       20.6019558414  W2        7367            0.0000000000
     22100      7367  TIP3      H1             34.5452012922      -16.9803063765       20.3914458414  W2        7367            0.0000000000
     22101      7367  TIP3      H2             34.9037812922      -18.3064863765       19.7554158414  W2        7367            0.0000000000
     22102      7368  TIP3      OH2            22.0321712922      -19.2090963765       18.0670058414  W2        7368            0.0000000000
     22103      7368  TIP3      H1             22.0137712922      -19.6345863765       18.9242358414  W2        7368            0.0000000000
     22104      7368  TIP3      H2             22.8369612922      -19.5275963765       17.6582258414  W2        7368            0.0000000000
     22105      7369  TIP3      OH2            24.1734812922      -20.4992263765       16.7219958414  W2        7369            0.0000000000
     22106      7369  TIP3      H1             23.9545512922      -21.4154863765       16.8915958414  W2        7369            0.0000000000
     22107      7369  TIP3      H2             24.9977012922      -20.3591863765       17.1881358414  W2        7369            0.0000000000
     22108      7370  TIP3      OH2            26.7107312922      -20.0292963765       17.5707958414  W2        7370            0.0000000000
     22109      7370  TIP3      H1             26.9233012922      -20.9173963765       17.2838858414  W2        7370            0.0000000000
     22110      7370  TIP3      H2             26.7752412922      -20.0635263765       18.5251958414  W2        7370            0.0000000000
     22111      7371  TIP3      OH2            30.2191012922      -34.3652363765       16.7151258414  W2        7371            0.0000000000
     22112      7371  TIP3      H1             29.5447812922      -34.9946763765       16.9707058414  W2        7371            0.0000000000
     22113      7371  TIP3      H2             30.7830212922      -34.8493463765       16.1119158414  W2        7371            0.0000000000
     22114      7372  TIP3      OH2            35.3618212922      -36.2578363765       16.8278358414  W2        7372            0.0000000000
     22115      7372  TIP3      H1             35.9655812922      -35.7102963765       16.3259358414  W2        7372            0.0000000000
     22116      7372  TIP3      H2             34.4920212922      -35.9387963765       16.5872458414  W2        7372            0.0000000000
     22117      7373  TIP3      OH2            22.5458512922      -35.7312063765       14.5371158414  W2        7373            0.0000000000
     22118      7373  TIP3      H1             21.7688312922      -35.9657163765       14.0297058414  W2        7373            0.0000000000
     22119      7373  TIP3      H2             23.0762112922      -36.5279963765       14.5459158414  W2        7373            0.0000000000
     22120      7374  TIP3      OH2            21.3821912922      -35.9333963765       10.3407258414  W2        7374            0.0000000000
     22121      7374  TIP3      H1             21.8212612922      -35.3223463765        9.7490758414  W2        7374            0.0000000000
     22122      7374  TIP3      H2             20.7484312922      -35.3949863765       10.8147258414  W2        7374            0.0000000000
     22123      7375  TIP3      OH2            27.1251112922      -35.8044963765       14.3504258414  W2        7375            0.0000000000
     22124      7375  TIP3      H1             27.9994512922      -35.4160663765       14.3208558414  W2        7375            0.0000000000
     22125      7375  TIP3      H2             26.9891912922      -36.0197163765       15.2731458414  W2        7375            0.0000000000
     22126      7376  TIP3      OH2            32.6819512922      -35.7745163765       15.9995958414  W2        7376            0.0000000000
     22127      7376  TIP3      H1             32.7581112922      -35.6793563765       15.0501958414  W2        7376            0.0000000000
     22128      7376  TIP3      H2             32.4068712922      -36.6822263765       16.1285058414  W2        7376            0.0000000000
     22129      7377  TIP3      OH2            34.0352112922      -35.7487363765       11.6920958414  W2        7377            0.0000000000
     22130      7377  TIP3      H1             33.3323212922      -35.1338163765       11.4822358414  W2        7377            0.0000000000
     22131      7377  TIP3      H2             33.5903512922      -36.5860663765       11.8231858414  W2        7377            0.0000000000
     22132      7378  TIP3      OH2            21.2831412922      -19.9851763765       11.2382358414  W2        7378            0.0000000000
     22133      7378  TIP3      H1             20.5981312922      -20.0232863765       10.5707458414  W2        7378            0.0000000000
     22134      7378  TIP3      H2             21.2868612922      -19.0724163765       11.5264458414  W2        7378            0.0000000000
     22135      7379  TIP3      OH2            23.2431012922      -34.0172463765        8.7831358414  W2        7379            0.0000000000
     22136      7379  TIP3      H1             23.7344412922      -34.6470063765        8.2556858414  W2        7379            0.0000000000
     22137      7379  TIP3      H2             23.8667312922      -33.7213063765        9.4462558414  W2        7379            0.0000000000
     22138      7380  TIP3      OH2            28.2691112922      -33.7240963765       11.2401858414  W2        7380            0.0000000000
     22139      7380  TIP3      H1             28.4472412922      -34.3707763765       11.9230458414  W2        7380            0.0000000000
     22140      7380  TIP3      H2             28.2157312922      -32.8903263765       11.7072958414  W2        7380            0.0000000000
     22141      7381  TIP3      OH2            30.1474912922      -18.7756863765        9.6358558414  W2        7381            0.0000000000
     22142      7381  TIP3      H1             31.0135112922      -18.4089463765        9.4576758414  W2        7381            0.0000000000
     22143      7381  TIP3      H2             29.9007712922      -19.2148863765        8.8219358414  W2        7381            0.0000000000
     22144      7382  TIP3      OH2            22.5036512922      -35.2170163765       24.0547358414  W2        7382            0.0000000000
     22145      7382  TIP3      H1             22.1374712922      -35.9827563765       24.4972058414  W2        7382            0.0000000000
     22146      7382  TIP3      H2             23.4165012922      -35.1879963765       24.3412458414  W2        7382            0.0000000000
     22147      7383  TIP3      OH2            24.4767312922      -35.8665763765       25.5904458414  W2        7383            0.0000000000
     22148      7383  TIP3      H1             25.3750912922      -36.1405563765       25.4057858414  W2        7383            0.0000000000
     22149      7383  TIP3      H2             24.0900412922      -36.6089763765       26.0547058414  W2        7383            0.0000000000
     22150      7384  TIP3      OH2            23.1012612922      -19.0650963765        8.2634458414  W2        7384            0.0000000000
     22151      7384  TIP3      H1             22.8337212922      -18.7788063765        9.1367558414  W2        7384            0.0000000000
     22152      7384  TIP3      H2             23.8725212922      -19.6111763765        8.4156958414  W2        7384            0.0000000000
     22153      7385  TIP3      OH2            32.8979612922      -36.5340463765       25.7727258414  W2        7385            0.0000000000
     22154      7385  TIP3      H1             32.9746812922      -36.9599763765       26.6264958414  W2        7385            0.0000000000
     22155      7385  TIP3      H2             33.7916212922      -36.5205763765       25.4300758414  W2        7385            0.0000000000
     22156      7386  TIP3      OH2            36.0740712922      -20.4614163765       24.4651458414  W2        7386            0.0000000000
     22157      7386  TIP3      H1             35.2922612922      -20.6476163765       23.9452058414  W2        7386            0.0000000000
     22158      7386  TIP3      H2             36.0020612922      -19.5319863765       24.6823958414  W2        7386            0.0000000000
     22159      7387  TIP3      OH2           -24.9438887078       -7.7189763765       14.4958658414  W2        7387            0.0000000000
     22160      7387  TIP3      H1            -24.8547787078       -6.7751563765       14.3635758414  W2        7387            0.0000000000
     22161      7387  TIP3      H2            -25.5821287078       -7.9943363765       13.8378058414  W2        7387            0.0000000000
     22162      7388  TIP3      OH2           -26.0107587078       -8.4639063765       17.9146858414  W2        7388            0.0000000000
     22163      7388  TIP3      H1            -26.0490087078       -9.1102763765       18.6196458414  W2        7388            0.0000000000
     22164      7388  TIP3      H2            -26.3331087078       -8.9304663765       17.1435558414  W2        7388            0.0000000000
     22165      7389  TIP3      OH2           -33.6422587078       -8.8496963765       19.5076758414  W2        7389            0.0000000000
     22166      7389  TIP3      H1            -33.6010487078       -9.4753663765       20.2309158414  W2        7389            0.0000000000
     22167      7389  TIP3      H2            -32.9394887078       -8.2258363765       19.6897158414  W2        7389            0.0000000000
     22168      7390  TIP3      OH2           -22.3047387078       -5.5248663765       16.2161958414  W2        7390            0.0000000000
     22169      7390  TIP3      H1            -22.7454687078       -6.2452663765       16.6667558414  W2        7390            0.0000000000
     22170      7390  TIP3      H2            -22.3177687078       -4.8041463765       16.8459658414  W2        7390            0.0000000000
     22171      7391  TIP3      OH2           -32.7189487078       -4.3998063765       18.0425858414  W2        7391            0.0000000000
     22172      7391  TIP3      H1            -33.0884287078       -5.2017563765       17.6730158414  W2        7391            0.0000000000
     22173      7391  TIP3      H2            -31.7778387078       -4.5683163765       18.0889258414  W2        7391            0.0000000000
     22174      7392  TIP3      OH2           -36.1088987078      -10.7395463765       13.4354658414  W2        7392            0.0000000000
     22175      7392  TIP3      H1            -36.5565587078       -9.8936763765       13.4171158414  W2        7392            0.0000000000
     22176      7392  TIP3      H2            -36.6697787078      -11.3191263765       12.9199758414  W2        7392            0.0000000000
     22177      7393  TIP3      OH2           -35.3982887078       -8.5775863765       15.5612658414  W2        7393            0.0000000000
     22178      7393  TIP3      H1            -35.1849387078       -9.3474263765       16.0885658414  W2        7393            0.0000000000
     22179      7393  TIP3      H2            -34.6605287078       -8.4879163765       14.9580258414  W2        7393            0.0000000000
     22180      7394  TIP3      OH2           -25.1931887078       -0.4206963765       16.4282358414  W2        7394            0.0000000000
     22181      7394  TIP3      H1            -24.5735487078       -1.0972263765       16.1551558414  W2        7394            0.0000000000
     22182      7394  TIP3      H2            -25.4014487078       -0.6386163765       17.3367258414  W2        7394            0.0000000000
     22183      7395  TIP3      OH2           -27.6213187078       -6.0317663765       18.3207858414  W2        7395            0.0000000000
     22184      7395  TIP3      H1            -27.3175287078       -6.7176263765       17.7261958414  W2        7395            0.0000000000
     22185      7395  TIP3      H2            -26.8999187078       -5.9128963765       18.9385858414  W2        7395            0.0000000000
     22186      7396  TIP3      OH2           -18.9583387078      -14.4302363765       19.1814058414  W2        7396            0.0000000000
     22187      7396  TIP3      H1            -18.9091187078      -13.8201163765       19.9173158414  W2        7396            0.0000000000
     22188      7396  TIP3      H2            -18.5328287078      -13.9691463765       18.4585158414  W2        7396            0.0000000000
     22189      7397  TIP3      OH2           -24.4806187078      -11.6375263765       18.6482658414  W2        7397            0.0000000000
     22190      7397  TIP3      H1            -24.3380287078      -12.5838263765       18.6684258414  W2        7397            0.0000000000
     22191      7397  TIP3      H2            -24.5867187078      -11.4305463765       17.7197558414  W2        7397            0.0000000000
     22192      7398  TIP3      OH2           -31.3257887078      -13.5358863765       15.9207458414  W2        7398            0.0000000000
     22193      7398  TIP3      H1            -31.2826787078      -12.6760363765       15.5023758414  W2        7398            0.0000000000
     22194      7398  TIP3      H2            -31.7833787078      -14.0884163765       15.2870658414  W2        7398            0.0000000000
     22195      7399  TIP3      OH2           -23.6035187078      -13.4053263765       14.3215758414  W2        7399            0.0000000000
     22196      7399  TIP3      H1            -22.9570887078      -13.7340063765       14.9463358414  W2        7399            0.0000000000
     22197      7399  TIP3      H2            -23.0935787078      -12.8874263765       13.6987158414  W2        7399            0.0000000000
     22198      7400  TIP3      OH2           -34.7056387078      -11.1393063765       16.6828858414  W2        7400            0.0000000000
     22199      7400  TIP3      H1            -34.0519787078      -11.6891363765       17.1148958414  W2        7400            0.0000000000
     22200      7400  TIP3      H2            -34.6817087078      -11.4134063765       15.7660858414  W2        7400            0.0000000000
     22201      7401  TIP3      OH2           -29.5491887078       -9.5891763765       15.8980358414  W2        7401            0.0000000000
     22202      7401  TIP3      H1            -28.9330887078      -10.1156363765       16.4074358414  W2        7401            0.0000000000
     22203      7401  TIP3      H2            -30.1353087078      -10.2293063765       15.4943958414  W2        7401            0.0000000000
     22204      7402  TIP3      OH2           -18.5668787078      -12.9523163765       21.4173858414  W2        7402            0.0000000000
     22205      7402  TIP3      H1            -19.2554187078      -12.2942463765       21.3220458414  W2        7402            0.0000000000
     22206      7402  TIP3      H2            -18.5514187078      -13.1495263765       22.3539258414  W2        7402            0.0000000000
     22207      7403  TIP3      OH2           -32.5155987078      -14.6180463765       19.9948258414  W2        7403            0.0000000000
     22208      7403  TIP3      H1            -32.7344287078      -14.0879863765       19.2284258414  W2        7403            0.0000000000
     22209      7403  TIP3      H2            -33.1835087078      -14.3914963765       20.6419658414  W2        7403            0.0000000000
     22210      7404  TIP3      OH2           -25.1466187078       -5.1179363765       13.5387358414  W2        7404            0.0000000000
     22211      7404  TIP3      H1            -25.4421087078       -5.4407063765       12.6874258414  W2        7404            0.0000000000
     22212      7404  TIP3      H2            -25.4708387078       -4.2182663765       13.5799958414  W2        7404            0.0000000000
     22213      7405  TIP3      OH2           -29.9464587078       -6.9424763765       20.2821958414  W2        7405            0.0000000000
     22214      7405  TIP3      H1            -30.6865487078       -6.3443263765       20.3857158414  W2        7405            0.0000000000
     22215      7405  TIP3      H2            -29.2325087078       -6.3885163765       19.9665558414  W2        7405            0.0000000000
     22216      7406  TIP3      OH2           -21.8396787078      -14.1143963765       16.3021658414  W2        7406            0.0000000000
     22217      7406  TIP3      H1            -22.0548787078      -14.8800563765       16.8347658414  W2        7406            0.0000000000
     22218      7406  TIP3      H2            -21.1839387078      -13.6419363765       16.8150158414  W2        7406            0.0000000000
     22219      7407  TIP3      OH2           -32.9218687078      -12.7258663765       17.9470458414  W2        7407            0.0000000000
     22220      7407  TIP3      H1            -32.3082387078      -12.0931063765       18.3202858414  W2        7407            0.0000000000
     22221      7407  TIP3      H2            -32.4097987078      -13.1983663765       17.2907358414  W2        7407            0.0000000000
     22222      7408  TIP3      OH2           -31.5390287078       -4.9781763765       21.0693458414  W2        7408            0.0000000000
     22223      7408  TIP3      H1            -31.5442687078       -4.0988263765       20.6912758414  W2        7408            0.0000000000
     22224      7408  TIP3      H2            -32.3926187078       -5.0617663765       21.4943358414  W2        7408            0.0000000000
     22225      7409  TIP3      OH2           -35.4179387078       -5.3073863765       11.8512758414  W2        7409            0.0000000000
     22226      7409  TIP3      H1            -35.6898487078       -5.0782863765       10.9625658414  W2        7409            0.0000000000
     22227      7409  TIP3      H2            -35.3723687078       -4.4695063765       12.3118058414  W2        7409            0.0000000000
     22228      7410  TIP3      OH2           -21.7929687078       -3.6857963765       18.5641258414  W2        7410            0.0000000000
     22229      7410  TIP3      H1            -22.7345987078       -3.6274063765       18.7258158414  W2        7410            0.0000000000
     22230      7410  TIP3      H2            -21.5163587078       -2.7797463765       18.4270958414  W2        7410            0.0000000000
     22231      7411  TIP3      OH2           -21.4922687078      -15.3992663765       19.9815158414  W2        7411            0.0000000000
     22232      7411  TIP3      H1            -22.2283487078      -14.7885563765       19.9436458414  W2        7411            0.0000000000
     22233      7411  TIP3      H2            -20.8088687078      -14.9843663765       19.4551558414  W2        7411            0.0000000000
     22234      7412  TIP3      OH2           -28.4891287078      -17.3125363765       17.4473158414  W2        7412            0.0000000000
     22235      7412  TIP3      H1            -28.6067087078      -18.2609363765       17.3931458414  W2        7412            0.0000000000
     22236      7412  TIP3      H2            -29.3441187078      -16.9799263765       17.7204258414  W2        7412            0.0000000000
     22237      7413  TIP3      OH2           -23.5408487078       -1.9044463765       15.1892858414  W2        7413            0.0000000000
     22238      7413  TIP3      H1            -23.1156187078       -2.6116563765       14.7042458414  W2        7413            0.0000000000
     22239      7413  TIP3      H2            -23.2238487078       -1.1031763765       14.7725058414  W2        7413            0.0000000000
     22240      7414  TIP3      OH2           -22.3811987078       -4.0035963765       13.6979458414  W2        7414            0.0000000000
     22241      7414  TIP3      H1            -22.6387187078       -4.6935863765       13.0865358414  W2        7414            0.0000000000
     22242      7414  TIP3      H2            -22.3101187078       -4.4464763765       14.5435358414  W2        7414            0.0000000000
     22243      7415  TIP3      OH2           -20.6951787078       -5.4369263765       22.1752958414  W2        7415            0.0000000000
     22244      7415  TIP3      H1            -20.5555487078       -6.0286763765       21.4359958414  W2        7415            0.0000000000
     22245      7415  TIP3      H2            -20.5278987078       -4.5643363765       21.8191758414  W2        7415            0.0000000000
     22246      7416  TIP3      OH2           -26.2226387078       -8.4749763765       11.9478958414  W2        7416            0.0000000000
     22247      7416  TIP3      H1            -26.9340887078       -7.9400063765       11.5959458414  W2        7416            0.0000000000
     22248      7416  TIP3      H2            -25.5316787078       -8.4197663765       11.2877858414  W2        7416            0.0000000000
     22249      7417  TIP3      OH2           -26.1687187078      -10.0175463765        8.9863958414  W2        7417            0.0000000000
     22250      7417  TIP3      H1            -25.4677287078       -9.9948563765        9.6377958414  W2        7417            0.0000000000
     22251      7417  TIP3      H2            -25.8664287078      -10.6455763765        8.3303258414  W2        7417            0.0000000000
     22252      7418  TIP3      OH2           -18.8532487078       -9.0971263765       20.2413358414  W2        7418            0.0000000000
     22253      7418  TIP3      H1            -19.5058387078       -8.4025663765       20.3304258414  W2        7418            0.0000000000
     22254      7418  TIP3      H2            -18.3882187078       -8.8870363765       19.4314958414  W2        7418            0.0000000000
     22255      7419  TIP3      OH2           -22.8168687078       -8.2656463765       12.8994858414  W2        7419            0.0000000000
     22256      7419  TIP3      H1            -23.5487687078       -8.0372763765       13.4725458414  W2        7419            0.0000000000
     22257      7419  TIP3      H2            -22.3696487078       -8.9793763765       13.3542358414  W2        7419            0.0000000000
     22258      7420  TIP3      OH2           -22.9195187078      -10.0913863765       21.9671858414  W2        7420            0.0000000000
     22259      7420  TIP3      H1            -22.8396087078       -9.3279463765       22.5390358414  W2        7420            0.0000000000
     22260      7420  TIP3      H2            -23.5207487078       -9.8121463765       21.2766958414  W2        7420            0.0000000000
     22261      7421  TIP3      OH2           -31.1714987078       -7.6350263765       14.7819858414  W2        7421            0.0000000000
     22262      7421  TIP3      H1            -31.5019787078       -8.0056863765       13.9636858414  W2        7421            0.0000000000
     22263      7421  TIP3      H2            -30.5830887078       -8.3056263765       15.1288158414  W2        7421            0.0000000000
     22264      7422  TIP3      OH2           -29.8047487078       -4.2069663765       17.4632058414  W2        7422            0.0000000000
     22265      7422  TIP3      H1            -29.8996187078       -4.7856563765       16.7066658414  W2        7422            0.0000000000
     22266      7422  TIP3      H2            -29.0753887078       -4.5783963765       17.9594858414  W2        7422            0.0000000000
     22267      7423  TIP3      OH2           -30.8049487078       -8.8664663765       18.4154858414  W2        7423            0.0000000000
     22268      7423  TIP3      H1            -30.2396987078       -8.7450463765       17.6526058414  W2        7423            0.0000000000
     22269      7423  TIP3      H2            -30.4860587078       -8.2289663765       19.0543358414  W2        7423            0.0000000000
     22270      7424  TIP3      OH2           -24.4957287078       -3.3632763765       19.1495358414  W2        7424            0.0000000000
     22271      7424  TIP3      H1            -24.7360687078       -2.7009663765       19.7974558414  W2        7424            0.0000000000
     22272      7424  TIP3      H2            -24.6939087078       -4.1977563765       19.5744958414  W2        7424            0.0000000000
     22273      7425  TIP3      OH2           -29.9248787078       -4.4671963765       23.1326758414  W2        7425            0.0000000000
     22274      7425  TIP3      H1            -30.2361287078       -3.6848763765       23.5879958414  W2        7425            0.0000000000
     22275      7425  TIP3      H2            -30.5748587078       -4.6202863765       22.4468758414  W2        7425            0.0000000000
     22276      7426  TIP3      OH2           -23.9459187078       -9.1033563765       10.5846058414  W2        7426            0.0000000000
     22277      7426  TIP3      H1            -23.3663687078       -8.9533263765       11.3314958414  W2        7426            0.0000000000
     22278      7426  TIP3      H2            -23.5319187078       -8.6326163765        9.8612458414  W2        7426            0.0000000000
     22279      7427  TIP3      OH2           -33.0048887078       -8.2690863765       22.3612458414  W2        7427            0.0000000000
     22280      7427  TIP3      H1            -32.9345687078       -7.6184063765       23.0597458414  W2        7427            0.0000000000
     22281      7427  TIP3      H2            -33.8956687078       -8.1663363765       22.0263358414  W2        7427            0.0000000000
     22282      7428  TIP3      OH2           -26.2194287078       -2.3665063765       14.0199158414  W2        7428            0.0000000000
     22283      7428  TIP3      H1            -25.7456687078       -2.0708763765       14.7973358414  W2        7428            0.0000000000
     22284      7428  TIP3      H2            -26.7824987078       -1.6283463765       13.7868758414  W2        7428            0.0000000000
     22285      7429  TIP3      OH2           -31.6852887078       -2.3956963765       23.8960558414  W2        7429            0.0000000000
     22286      7429  TIP3      H1            -31.6777587078       -2.5317263765       22.9486058414  W2        7429            0.0000000000
     22287      7429  TIP3      H2            -32.6012487078       -2.5128863765       24.1480558414  W2        7429            0.0000000000
     22288      7430  TIP3      OH2           -20.2470787078      -17.3533163765       10.3975758414  W2        7430            0.0000000000
     22289      7430  TIP3      H1            -21.1470087078      -17.2144163765       10.6926358414  W2        7430            0.0000000000
     22290      7430  TIP3      H2            -19.9952387078      -16.5218563765        9.9957458414  W2        7430            0.0000000000
     22291      7431  TIP3      OH2           -32.1812287078       -8.5655963765       12.3712658414  W2        7431            0.0000000000
     22292      7431  TIP3      H1            -32.4730987078       -7.7974263765       11.8803958414  W2        7431            0.0000000000
     22293      7431  TIP3      H2            -32.8557087078       -9.2249763765       12.2084058414  W2        7431            0.0000000000
     22294      7432  TIP3      OH2           -19.0579387078       -2.9870763765        8.7739658414  W2        7432            0.0000000000
     22295      7432  TIP3      H1            -18.9845887078       -2.0480563765        8.9444958414  W2        7432            0.0000000000
     22296      7432  TIP3      H2            -18.1524287078       -3.2922163765        8.7176958414  W2        7432            0.0000000000
     22297      7433  TIP3      OH2           -36.0882187078       -6.2026763765       21.1862458414  W2        7433            0.0000000000
     22298      7433  TIP3      H1            -36.5893787078       -6.2307363765       20.3712158414  W2        7433            0.0000000000
     22299      7433  TIP3      H2            -36.0828487078       -7.1083563765       21.4959758414  W2        7433            0.0000000000
     22300      7434  TIP3      OH2           -36.3379487078       -3.4222963765       18.0702658414  W2        7434            0.0000000000
     22301      7434  TIP3      H1            -35.3918887078       -3.5665963765       18.0512158414  W2        7434            0.0000000000
     22302      7434  TIP3      H2            -36.4503187078       -2.6380163765       18.6073858414  W2        7434            0.0000000000
     22303      7435  TIP3      OH2           -18.1400987078       -2.7563263765       23.7526358414  W2        7435            0.0000000000
     22304      7435  TIP3      H1            -18.1894187078       -3.7115163765       23.7153958414  W2        7435            0.0000000000
     22305      7435  TIP3      H2            -18.9668687078       -2.4887963765       24.1540158414  W2        7435            0.0000000000
     22306      7436  TIP3      OH2           -27.1616987078       -3.1824063765       22.6287758414  W2        7436            0.0000000000
     22307      7436  TIP3      H1            -27.0742387078       -2.3559463765       23.1036858414  W2        7436            0.0000000000
     22308      7436  TIP3      H2            -28.0251887078       -3.5120263765       22.8777058414  W2        7436            0.0000000000
     22309      7437  TIP3      OH2           -26.7471187078        0.5899636235       12.4348358414  W2        7437            0.0000000000
     22310      7437  TIP3      H1            -26.8225187078        0.4686836235       11.4883558414  W2        7437            0.0000000000
     22311      7437  TIP3      H2            -26.7142487078        1.5392336235       12.5532958414  W2        7437            0.0000000000
     22312      7438  TIP3      OH2           -33.0937387078       -0.6213363765       14.2157358414  W2        7438            0.0000000000
     22313      7438  TIP3      H1            -32.9416987078       -0.9692963765       15.0943858414  W2        7438            0.0000000000
     22314      7438  TIP3      H2            -33.9446987078       -0.9776063765       13.9604558414  W2        7438            0.0000000000
     22315      7439  TIP3      OH2           -23.6455187078       -0.2560163765        9.4370758414  W2        7439            0.0000000000
     22316      7439  TIP3      H1            -23.2706787078       -1.0004063765        8.9663358414  W2        7439            0.0000000000
     22317      7439  TIP3      H2            -23.6411487078       -0.5259563765       10.3554058414  W2        7439            0.0000000000
     22318      7440  TIP3      OH2           -23.9767087078       -0.3303063765       12.1862958414  W2        7440            0.0000000000
     22319      7440  TIP3      H1            -24.9117287078       -0.2301163765       12.3649958414  W2        7440            0.0000000000
     22320      7440  TIP3      H2            -23.6965187078       -1.0397063765       12.7646158414  W2        7440            0.0000000000
     22321      7441  TIP3      OH2           -20.9881187078      -11.2630763765       24.2328558414  W2        7441            0.0000000000
     22322      7441  TIP3      H1            -21.3954387078      -10.7825163765       23.5121858414  W2        7441            0.0000000000
     22323      7441  TIP3      H2            -20.9475487078      -12.1684763765       23.9249358414  W2        7441            0.0000000000
     22324      7442  TIP3      OH2           -33.8391687078       -4.8791363765       22.2295258414  W2        7442            0.0000000000
     22325      7442  TIP3      H1            -33.6230387078       -5.2405763765       23.0891058414  W2        7442            0.0000000000
     22326      7442  TIP3      H2            -34.6946987078       -5.2537563765       22.0198758414  W2        7442            0.0000000000
     22327      7443  TIP3      OH2           -31.2203687078      -16.4090863765       18.2249458414  W2        7443            0.0000000000
     22328      7443  TIP3      H1            -32.0819987078      -16.4962663765       17.8172358414  W2        7443            0.0000000000
     22329      7443  TIP3      H2            -31.2427987078      -15.5530763765       18.6527058414  W2        7443            0.0000000000
     22330      7444  TIP3      OH2           -26.5575887078      -16.6870463765       21.5996458414  W2        7444            0.0000000000
     22331      7444  TIP3      H1            -26.1372787078      -17.1023363765       22.3527058414  W2        7444            0.0000000000
     22332      7444  TIP3      H2            -27.4906287078      -16.8657163765       21.7168458414  W2        7444            0.0000000000
     22333      7445  TIP3      OH2           -23.2310987078      -12.9315263765       22.4530958414  W2        7445            0.0000000000
     22334      7445  TIP3      H1            -23.7451487078      -13.0573063765       23.2506958414  W2        7445            0.0000000000
     22335      7445  TIP3      H2            -23.3866287078      -12.0192163765       22.2087158414  W2        7445            0.0000000000
     22336      7446  TIP3      OH2           -22.4686087078       -8.0705263765        8.2143958414  W2        7446            0.0000000000
     22337      7446  TIP3      H1            -22.4265287078       -8.2931363765        7.2843958414  W2        7446            0.0000000000
     22338      7446  TIP3      H2            -21.6193987078       -7.6718163765        8.4043858414  W2        7446            0.0000000000
     22339      7447  TIP3      OH2           -26.8958587078      -14.1947063765        8.8847258414  W2        7447            0.0000000000
     22340      7447  TIP3      H1            -27.1493787078      -14.1755463765        9.8075358414  W2        7447            0.0000000000
     22341      7447  TIP3      H2            -27.1526487078      -15.0661663765        8.5833458414  W2        7447            0.0000000000
     22342      7448  TIP3      OH2           -31.1293587078      -11.4436363765       19.3199658414  W2        7448            0.0000000000
     22343      7448  TIP3      H1            -31.7711487078      -11.4839063765       20.0289758414  W2        7448            0.0000000000
     22344      7448  TIP3      H2            -31.0921587078      -10.5171663765       19.0822658414  W2        7448            0.0000000000
     22345      7449  TIP3      OH2           -31.1324487078      -11.2226263765       14.2319658414  W2        7449            0.0000000000
     22346      7449  TIP3      H1            -32.0251587078      -11.5630163765       14.1733458414  W2        7449            0.0000000000
     22347      7449  TIP3      H2            -30.6817887078      -11.5995363765       13.4762858414  W2        7449            0.0000000000
     22348      7450  TIP3      OH2           -25.5968987078      -10.8065963765       13.0490458414  W2        7450            0.0000000000
     22349      7450  TIP3      H1            -26.0058687078       -9.9917363765       12.7575258414  W2        7450            0.0000000000
     22350      7450  TIP3      H2            -24.8762787078      -10.9465863765       12.4347558414  W2        7450            0.0000000000
     22351      7451  TIP3      OH2           -26.4947387078      -10.6309563765       24.5371158414  W2        7451            0.0000000000
     22352      7451  TIP3      H1            -27.0573587078      -11.3357963765       24.8578958414  W2        7451            0.0000000000
     22353      7451  TIP3      H2            -25.6683987078      -10.7517663765       25.0048758414  W2        7451            0.0000000000
     22354      7452  TIP3      OH2           -24.5921287078      -11.3605563765       15.8630158414  W2        7452            0.0000000000
     22355      7452  TIP3      H1            -24.7876787078      -10.7548763765       15.1480758414  W2        7452            0.0000000000
     22356      7452  TIP3      H2            -24.4108687078      -12.1940363765       15.4286458414  W2        7452            0.0000000000
     22357      7453  TIP3      OH2           -33.3793087078      -11.1232863765       21.1871658414  W2        7453            0.0000000000
     22358      7453  TIP3      H1            -33.4173687078      -10.7231263765       22.0558758414  W2        7453            0.0000000000
     22359      7453  TIP3      H2            -33.8701987078      -11.9400463765       21.2774558414  W2        7453            0.0000000000
     22360      7454  TIP3      OH2           -30.0135687078      -13.7490563765        7.9857658414  W2        7454            0.0000000000
     22361      7454  TIP3      H1            -30.4444987078      -14.1940463765        8.7155058414  W2        7454            0.0000000000
     22362      7454  TIP3      H2            -30.7316987078      -13.3774263765        7.4735158414  W2        7454            0.0000000000
     22363      7455  TIP3      OH2           -36.7712287078      -14.0071063765       15.0376358414  W2        7455            0.0000000000
     22364      7455  TIP3      H1            -36.1404587078      -14.0358963765       15.7570258414  W2        7455            0.0000000000
     22365      7455  TIP3      H2            -36.3217987078      -14.4322363765       14.3072258414  W2        7455            0.0000000000
     22366      7456  TIP3      OH2           -35.4970187078      -13.2609063765       10.4616758414  W2        7456            0.0000000000
     22367      7456  TIP3      H1            -35.0228487078      -12.6699163765        9.8767658414  W2        7456            0.0000000000
     22368      7456  TIP3      H2            -36.2143787078      -12.7306163765       10.8086858414  W2        7456            0.0000000000
     22369      7457  TIP3      OH2           -25.3282087078       -9.7224263765       20.5342558414  W2        7457            0.0000000000
     22370      7457  TIP3      H1            -25.0047287078      -10.3534563765       19.8913058414  W2        7457            0.0000000000
     22371      7457  TIP3      H2            -25.7682787078      -10.2572063765       21.1949958414  W2        7457            0.0000000000
     22372      7458  TIP3      OH2           -28.5509187078      -13.7948763765       15.3183758414  W2        7458            0.0000000000
     22373      7458  TIP3      H1            -29.4618087078      -13.7381963765       15.6069758414  W2        7458            0.0000000000
     22374      7458  TIP3      H2            -28.0456287078      -13.8553263765       16.1290958414  W2        7458            0.0000000000
     22375      7459  TIP3      OH2           -33.7225787078      -12.1662463765       14.1451358414  W2        7459            0.0000000000
     22376      7459  TIP3      H1            -34.6117787078      -12.0666963765       13.8050958414  W2        7459            0.0000000000
     22377      7459  TIP3      H2            -33.4260887078      -13.0079463765       13.7989258414  W2        7459            0.0000000000
     22378      7460  TIP3      OH2           -30.0693987078      -12.1659863765       11.8015958414  W2        7460            0.0000000000
     22379      7460  TIP3      H1            -29.1378487078      -12.0369863765       11.9799058414  W2        7460            0.0000000000
     22380      7460  TIP3      H2            -30.2843687078      -11.4965563765       11.1520658414  W2        7460            0.0000000000
     22381      7461  TIP3      OH2           -24.1457287078      -14.5602463765       18.5825558414  W2        7461            0.0000000000
     22382      7461  TIP3      H1            -24.8225687078      -14.4289363765       19.2465258414  W2        7461            0.0000000000
     22383      7461  TIP3      H2            -24.6312387078      -14.7152963765       17.7723258414  W2        7461            0.0000000000
     22384      7462  TIP3      OH2           -31.3953787078      -10.9717663765        9.3682058414  W2        7462            0.0000000000
     22385      7462  TIP3      H1            -31.9378687078      -11.3513863765        8.6769658414  W2        7462            0.0000000000
     22386      7462  TIP3      H2            -30.5618887078      -10.7772963765        8.9396158414  W2        7462            0.0000000000
     22387      7463  TIP3      OH2           -20.8582187078        1.1112936235       24.8593158414  W2        7463            0.0000000000
     22388      7463  TIP3      H1            -20.6583487078        1.5354836235       24.0248458414  W2        7463            0.0000000000
     22389      7463  TIP3      H2            -20.2028487078        1.4551136235       25.4663558414  W2        7463            0.0000000000
     22390      7464  TIP3      OH2           -33.2602387078       -6.4145763765       24.4673658414  W2        7464            0.0000000000
     22391      7464  TIP3      H1            -32.5279987078       -6.1599863765       25.0288158414  W2        7464            0.0000000000
     22392      7464  TIP3      H2            -34.0403687078       -6.2100363765       24.9829058414  W2        7464            0.0000000000
     22393      7465  TIP3      OH2           -27.2309487078      -11.0075763765       17.2053358414  W2        7465            0.0000000000
     22394      7465  TIP3      H1            -26.6666087078      -11.5539163765       16.6582958414  W2        7465            0.0000000000
     22395      7465  TIP3      H2            -27.3786087078      -11.5293863765       17.9940958414  W2        7465            0.0000000000
     22396      7466  TIP3      OH2           -32.2289787078      -14.8709663765       13.6238158414  W2        7466            0.0000000000
     22397      7466  TIP3      H1            -32.5460287078      -15.7734363765       13.5883558414  W2        7466            0.0000000000
     22398      7466  TIP3      H2            -31.4475687078      -14.8692263765       13.0709758414  W2        7466            0.0000000000
     22399      7467  TIP3      OH2           -28.6043587078      -12.6189663765       19.6193758414  W2        7467            0.0000000000
     22400      7467  TIP3      H1            -29.4398287078      -12.1650163765       19.7296158414  W2        7467            0.0000000000
     22401      7467  TIP3      H2            -28.0802987078      -12.3431163765       20.3713658414  W2        7467            0.0000000000
     22402      7468  TIP3      OH2           -28.0600987078       -6.4061963765       11.3040158414  W2        7468            0.0000000000
     22403      7468  TIP3      H1            -28.8049987078       -6.9136663765       10.9818058414  W2        7468            0.0000000000
     22404      7468  TIP3      H2            -28.1943787078       -6.3573963765       12.2504958414  W2        7468            0.0000000000
     22405      7469  TIP3      OH2           -20.9102087078       -7.2733763765       20.0907758414  W2        7469            0.0000000000
     22406      7469  TIP3      H1            -20.2683287078       -6.8167463765       19.5469958414  W2        7469            0.0000000000
     22407      7469  TIP3      H2            -21.7405187078       -7.1601363765       19.6281858414  W2        7469            0.0000000000
     22408      7470  TIP3      OH2           -24.1624187078      -13.5922063765        9.5032758414  W2        7470            0.0000000000
     22409      7470  TIP3      H1            -25.1009987078      -13.4806463765        9.3521558414  W2        7470            0.0000000000
     22410      7470  TIP3      H2            -23.8652087078      -12.7355163765        9.8098458414  W2        7470            0.0000000000
     22411      7471  TIP3      OH2           -26.5408887078       -6.2218663765       22.5409258414  W2        7471            0.0000000000
     22412      7471  TIP3      H1            -26.8862787078       -6.6036263765       23.3478858414  W2        7471            0.0000000000
     22413      7471  TIP3      H2            -26.7408787078       -5.2885063765       22.6122158414  W2        7471            0.0000000000
     22414      7472  TIP3      OH2           -23.4440687078      -11.7249363765       11.1640158414  W2        7472            0.0000000000
     22415      7472  TIP3      H1            -22.5521687078      -11.8624363765       11.4831358414  W2        7472            0.0000000000
     22416      7472  TIP3      H2            -23.3877087078      -10.9343263765       10.6273658414  W2        7472            0.0000000000
     22417      7473  TIP3      OH2           -32.9352687078       -7.1111963765       17.0738058414  W2        7473            0.0000000000
     22418      7473  TIP3      H1            -32.1905487078       -7.1136263765       16.4724558414  W2        7473            0.0000000000
     22419      7473  TIP3      H2            -32.8576087078       -7.9348163765       17.5553158414  W2        7473            0.0000000000
     22420      7474  TIP3      OH2           -25.9346887078       -4.9477663765       10.3294758414  W2        7474            0.0000000000
     22421      7474  TIP3      H1            -26.2298487078       -4.1209763765       10.7109558414  W2        7474            0.0000000000
     22422      7474  TIP3      H2            -26.6376887078       -5.5670763765       10.5256158414  W2        7474            0.0000000000
     22423      7475  TIP3      OH2           -35.9272987078       -8.6505063765       22.3886558414  W2        7475            0.0000000000
     22424      7475  TIP3      H1            -35.7044387078       -9.0685463765       23.2204058414  W2        7475            0.0000000000
     22425      7475  TIP3      H2            -36.5292887078       -9.2630063765       21.9659358414  W2        7475            0.0000000000
     22426      7476  TIP3      OH2           -28.9108087078       -9.1335163765       24.6016258414  W2        7476            0.0000000000
     22427      7476  TIP3      H1            -29.2067287078       -9.2992163765       23.7065358414  W2        7476            0.0000000000
     22428      7476  TIP3      H2            -27.9792887078       -9.3534863765       24.5910158414  W2        7476            0.0000000000
     22429      7477  TIP3      OH2           -24.2905287078       -3.7603163765       22.4914258414  W2        7477            0.0000000000
     22430      7477  TIP3      H1            -25.1910987078       -3.5770563765       22.2238158414  W2        7477            0.0000000000
     22431      7477  TIP3      H2            -24.2564187078       -3.5013863765       23.4123058414  W2        7477            0.0000000000
     22432      7478  TIP3      OH2           -18.5591987078      -11.5155263765       10.8586858414  W2        7478            0.0000000000
     22433      7478  TIP3      H1            -19.1135687078      -11.9117263765       10.1864358414  W2        7478            0.0000000000
     22434      7478  TIP3      H2            -18.4588387078      -10.6050063765       10.5810158414  W2        7478            0.0000000000
     22435      7479  TIP3      OH2           -18.5959987078       -5.7153563765       23.6958358414  W2        7479            0.0000000000
     22436      7479  TIP3      H1            -19.4471487078       -5.4769763765       23.3284758414  W2        7479            0.0000000000
     22437      7479  TIP3      H2            -18.0056587078       -5.7320363765       22.9425458414  W2        7479            0.0000000000
     22438      7480  TIP3      OH2           -20.2640287078       -2.7294863765       11.3238958414  W2        7480            0.0000000000
     22439      7480  TIP3      H1            -20.6369187078       -3.5551063765       11.6329558414  W2        7480            0.0000000000
     22440      7480  TIP3      H2            -19.9866787078       -2.9125463765       10.4262358414  W2        7480            0.0000000000
     22441      7481  TIP3      OH2           -23.1036387078       -7.9215363765       18.3450858414  W2        7481            0.0000000000
     22442      7481  TIP3      H1            -24.0319487078       -8.1533463765       18.3180158414  W2        7481            0.0000000000
     22443      7481  TIP3      H2            -22.6525287078       -8.6985563765       18.0149658414  W2        7481            0.0000000000
     22444      7482  TIP3      OH2           -30.5603287078       -3.5933763765       14.4779558414  W2        7482            0.0000000000
     22445      7482  TIP3      H1            -30.0331087078       -2.8199363765       14.2778358414  W2        7482            0.0000000000
     22446      7482  TIP3      H2            -31.4404787078       -3.3684563765       14.1763558414  W2        7482            0.0000000000
     22447      7483  TIP3      OH2           -34.8055587078       -8.7309663765        9.0651958414  W2        7483            0.0000000000
     22448      7483  TIP3      H1            -34.1895687078       -8.1042463765        9.4446758414  W2        7483            0.0000000000
     22449      7483  TIP3      H2            -35.6672987078       -8.4149863765        9.3368458414  W2        7483            0.0000000000
     22450      7484  TIP3      OH2           -29.1330987078       -5.9303863765       14.0543858414  W2        7484            0.0000000000
     22451      7484  TIP3      H1            -29.3740987078       -5.0049463765       14.0959158414  W2        7484            0.0000000000
     22452      7484  TIP3      H2            -29.8737387078       -6.3892563765       14.4507758414  W2        7484            0.0000000000
     22453      7485  TIP3      OH2           -28.6184387078       -1.7810263765       20.3694958414  W2        7485            0.0000000000
     22454      7485  TIP3      H1            -28.2559687078       -0.9264663765       20.1359358414  W2        7485            0.0000000000
     22455      7485  TIP3      H2            -28.0869187078       -2.0728663765       21.1101258414  W2        7485            0.0000000000
     22456      7486  TIP3      OH2           -30.4500187078       -0.9086263765       13.5996058414  W2        7486            0.0000000000
     22457      7486  TIP3      H1            -31.3999687078       -0.8028863765       13.6509358414  W2        7486            0.0000000000
     22458      7486  TIP3      H2            -30.0982087078       -0.0878863765       13.9443558414  W2        7486            0.0000000000
     22459      7487  TIP3      OH2           -25.0743587078       -5.6819563765       20.0700558414  W2        7487            0.0000000000
     22460      7487  TIP3      H1            -25.5002287078       -5.9097863765       20.8964558414  W2        7487            0.0000000000
     22461      7487  TIP3      H2            -24.4937787078       -6.4207763765       19.8875858414  W2        7487            0.0000000000
     22462      7488  TIP3      OH2           -22.8714687078       -4.7529063765        9.1439558414  W2        7488            0.0000000000
     22463      7488  TIP3      H1            -22.5181587078       -5.1329263765        9.9483058414  W2        7488            0.0000000000
     22464      7488  TIP3      H2            -23.8201187078       -4.8464263765        9.2308858414  W2        7488            0.0000000000
     22465      7489  TIP3      OH2           -22.4159387078       -1.1300063765       22.5395358414  W2        7489            0.0000000000
     22466      7489  TIP3      H1            -23.0176187078       -1.6857163765       22.0441658414  W2        7489            0.0000000000
     22467      7489  TIP3      H2            -22.1345687078       -0.4630263765       21.9132758414  W2        7489            0.0000000000
     22468      7490  TIP3      OH2           -18.3680287078       -0.2736563765        9.3449758414  W2        7490            0.0000000000
     22469      7490  TIP3      H1            -17.6242387078        0.3123936235        9.2051358414  W2        7490            0.0000000000
     22470      7490  TIP3      H2            -19.0622187078        0.2949236235        9.6782158414  W2        7490            0.0000000000
     22471      7491  TIP3      OH2           -34.2933487078      -13.8972363765       21.9467958414  W2        7491            0.0000000000
     22472      7491  TIP3      H1            -35.1861187078      -13.5586963765       21.8791958414  W2        7491            0.0000000000
     22473      7491  TIP3      H2            -34.3920687078      -14.7526263765       22.3648758414  W2        7491            0.0000000000
     22474      7492  TIP3      OH2           -22.0055387078       -6.0807063765       11.3707458414  W2        7492            0.0000000000
     22475      7492  TIP3      H1            -22.2827787078       -6.8087763765       11.9268558414  W2        7492            0.0000000000
     22476      7492  TIP3      H2            -21.0782387078       -5.9615063765       11.5760058414  W2        7492            0.0000000000
     22477      7493  TIP3      OH2           -34.6421487078       -2.0927963765       20.3817358414  W2        7493            0.0000000000
     22478      7493  TIP3      H1            -34.4251187078       -3.0245563765       20.3507058414  W2        7493            0.0000000000
     22479      7493  TIP3      H2            -34.3957987078       -1.8182963765       21.2650158414  W2        7493            0.0000000000
     22480      7494  TIP3      OH2           -28.7806887078       -3.6412963765        7.5909558414  W2        7494            0.0000000000
     22481      7494  TIP3      H1            -28.5417087078       -4.3894863765        7.0438458414  W2        7494            0.0000000000
     22482      7494  TIP3      H2            -29.0495587078       -4.0291263765        8.4237358414  W2        7494            0.0000000000
     22483      7495  TIP3      OH2           -29.8436287078       -4.0709163765       10.0472158414  W2        7495            0.0000000000
     22484      7495  TIP3      H1            -29.6968287078       -4.5909363765       10.8373058414  W2        7495            0.0000000000
     22485      7495  TIP3      H2            -29.8464587078       -3.1641563765       10.3538058414  W2        7495            0.0000000000
     22486      7496  TIP3      OH2           -33.3905187078       -6.8185863765       10.5577558414  W2        7496            0.0000000000
     22487      7496  TIP3      H1            -34.0765887078       -6.4663363765       11.1247258414  W2        7496            0.0000000000
     22488      7496  TIP3      H2            -32.8677287078       -6.0556263765       10.3111858414  W2        7496            0.0000000000
     22489      7497  TIP3      OH2           -25.5590087078      -14.1562063765       20.8366558414  W2        7497            0.0000000000
     22490      7497  TIP3      H1            -24.8602187078      -14.0823363765       21.4866258414  W2        7497            0.0000000000
     22491      7497  TIP3      H2            -25.9398687078      -15.0207063765       20.9909458414  W2        7497            0.0000000000
     22492      7498  TIP3      OH2           -24.7745187078      -14.5040363765       11.9338858414  W2        7498            0.0000000000
     22493      7498  TIP3      H1            -24.5546887078      -14.0324963765       11.1304258414  W2        7498            0.0000000000
     22494      7498  TIP3      H2            -24.2161187078      -14.1097763765       12.6039458414  W2        7498            0.0000000000
     22495      7499  TIP3      OH2           -27.1059087078       -2.3735563765       10.7966358414  W2        7499            0.0000000000
     22496      7499  TIP3      H1            -27.9222987078       -1.8765863765       10.8490658414  W2        7499            0.0000000000
     22497      7499  TIP3      H2            -26.5762787078       -1.8982063765       10.1565158414  W2        7499            0.0000000000
     22498      7500  TIP3      OH2           -27.5745287078      -12.7761563765       12.7687258414  W2        7500            0.0000000000
     22499      7500  TIP3      H1            -26.7622687078      -12.2718363765       12.8148958414  W2        7500            0.0000000000
     22500      7500  TIP3      H2            -27.8192287078      -12.9211863765       13.6826858414  W2        7500            0.0000000000
     22501      7501  TIP3      OH2           -27.0388887078      -11.7898863765       21.9533858414  W2        7501            0.0000000000
     22502      7501  TIP3      H1            -26.9198587078      -11.2163463765       22.7104258414  W2        7501            0.0000000000
     22503      7501  TIP3      H2            -26.3834287078      -12.4779463765       22.0681658414  W2        7501            0.0000000000
     22504      7502  TIP3      OH2           -26.6908587078      -15.6948563765       13.7068358414  W2        7502            0.0000000000
     22505      7502  TIP3      H1            -27.0375087078      -15.0777963765       14.3512658414  W2        7502            0.0000000000
     22506      7502  TIP3      H2            -26.0321687078      -15.1942863765       13.2253858414  W2        7502            0.0000000000
     22507      7503  TIP3      OH2           -29.7675987078       -1.3298363765       10.7783258414  W2        7503            0.0000000000
     22508      7503  TIP3      H1            -29.6067287078       -0.5300863765       10.2775858414  W2        7503            0.0000000000
     22509      7503  TIP3      H2            -29.9648187078       -1.0232363765       11.6633858414  W2        7503            0.0000000000
     22510      7504  TIP3      OH2           -31.0331587078      -14.6319163765       10.3940858414  W2        7504            0.0000000000
     22511      7504  TIP3      H1            -31.1166787078      -13.7436063765       10.7407258414  W2        7504            0.0000000000
     22512      7504  TIP3      H2            -30.1431287078      -14.8972463765       10.6257658414  W2        7504            0.0000000000
     22513      7505  TIP3      OH2           -20.8343087078      -13.8828563765       22.7883558414  W2        7505            0.0000000000
     22514      7505  TIP3      H1            -21.7507287078      -13.6206863765       22.7007258414  W2        7505            0.0000000000
     22515      7505  TIP3      H2            -20.4988087078      -13.8859563765       21.8918858414  W2        7505            0.0000000000
     22516      7506  TIP3      OH2           -22.2322087078      -10.1327563765       16.8840858414  W2        7506            0.0000000000
     22517      7506  TIP3      H1            -23.0297687078      -10.5477363765       16.5555858414  W2        7506            0.0000000000
     22518      7506  TIP3      H2            -21.7870987078      -10.8233863765       17.3751358414  W2        7506            0.0000000000
     22519      7507  TIP3      OH2           -32.7746287078       -4.2046963765        9.4545358414  W2        7507            0.0000000000
     22520      7507  TIP3      H1            -32.1824787078       -3.5052163765        9.7307758414  W2        7507            0.0000000000
     22521      7507  TIP3      H2            -32.3153287078       -4.6377463765        8.7349958414  W2        7507            0.0000000000
     22522      7508  TIP3      OH2           -34.4587087078      -11.5403963765        8.5704758414  W2        7508            0.0000000000
     22523      7508  TIP3      H1            -34.5034487078      -10.6010863765        8.7491758414  W2        7508            0.0000000000
     22524      7508  TIP3      H2            -35.3463887078      -11.7759063765        8.3006858414  W2        7508            0.0000000000
     22525      7509  TIP3      OH2           -21.1457487078       -0.8765063765       18.5064358414  W2        7509            0.0000000000
     22526      7509  TIP3      H1            -21.3013187078       -0.1980663765       17.8493658414  W2        7509            0.0000000000
     22527      7509  TIP3      H2            -20.2131087078       -0.8045763765       18.7094958414  W2        7509            0.0000000000
     22528      7510  TIP3      OH2           -33.6505087078      -16.7587363765       17.2435758414  W2        7510            0.0000000000
     22529      7510  TIP3      H1            -33.8795287078      -16.6994863765       16.3160758414  W2        7510            0.0000000000
     22530      7510  TIP3      H2            -34.0931687078      -17.5501863765       17.5499858414  W2        7510            0.0000000000
     22531      7511  TIP3      OH2           -34.7201787078       -2.8180263765       13.4041558414  W2        7511            0.0000000000
     22532      7511  TIP3      H1            -35.5523187078       -2.3457563765       13.4312958414  W2        7511            0.0000000000
     22533      7511  TIP3      H2            -34.1743487078       -2.3082663765       12.8054658414  W2        7511            0.0000000000
     22534      7512  TIP3      OH2           -35.4318087078       -0.2056563765       24.7339558414  W2        7512            0.0000000000
     22535      7512  TIP3      H1            -34.8915887078       -0.4222563765       25.4938758414  W2        7512            0.0000000000
     22536      7512  TIP3      H2            -35.9130087078       -1.0110563765       24.5442058414  W2        7512            0.0000000000
     22537      7513  TIP3      OH2           -30.8344687078       -1.2862163765       26.3543758414  W2        7513            0.0000000000
     22538      7513  TIP3      H1            -30.0667487078       -1.7451363765       26.6952958414  W2        7513            0.0000000000
     22539      7513  TIP3      H2            -30.8558487078       -1.5122363765       25.4244958414  W2        7513            0.0000000000
     22540      7514  TIP3      OH2           -26.7425087078       -1.7781563765        7.7295558414  W2        7514            0.0000000000
     22541      7514  TIP3      H1            -27.3864087078       -2.4092963765        8.0509258414  W2        7514            0.0000000000
     22542      7514  TIP3      H2            -25.9806787078       -2.3093563765        7.4979058414  W2        7514            0.0000000000
     22543      7515  TIP3      OH2           -24.2575987078       -2.9061063765       25.0835258414  W2        7515            0.0000000000
     22544      7515  TIP3      H1            -24.6086487078       -3.7628063765       25.3265658414  W2        7515            0.0000000000
     22545      7515  TIP3      H2            -23.5312787078       -2.7634363765       25.6904258414  W2        7515            0.0000000000
     22546      7516  TIP3      OH2           -22.1382187078       -1.9611663765        7.9633558414  W2        7516            0.0000000000
     22547      7516  TIP3      H1            -21.8551787078       -2.7556463765        8.4160458414  W2        7516            0.0000000000
     22548      7516  TIP3      H2            -21.3984287078       -1.7280663765        7.4024658414  W2        7516            0.0000000000
     22549      7517  TIP3      OH2           -35.5248587078       -6.3952463765       25.6883858414  W2        7517            0.0000000000
     22550      7517  TIP3      H1            -35.3808087078       -7.2971763765       25.4020558414  W2        7517            0.0000000000
     22551      7517  TIP3      H2            -36.2971187078       -6.1090363765       25.2006158414  W2        7517            0.0000000000
     22552      7518  TIP3      OH2           -31.1834887078       -6.0516763765        7.8208458414  W2        7518            0.0000000000
     22553      7518  TIP3      H1            -31.1190787078       -6.8457163765        8.3514858414  W2        7518            0.0000000000
     22554      7518  TIP3      H2            -30.5305687078       -6.1703963765        7.1310458414  W2        7518            0.0000000000
     22555      7519  TIP3      OH2           -28.8692487078       -6.4254363765       25.1210258414  W2        7519            0.0000000000
     22556      7519  TIP3      H1            -29.1978687078       -6.1546263765       24.2637658414  W2        7519            0.0000000000
     22557      7519  TIP3      H2            -28.7174287078       -7.3664563765       25.0335258414  W2        7519            0.0000000000
     22558      7520  TIP3      OH2           -25.8311487078       -5.0045063765        7.5566458414  W2        7520            0.0000000000
     22559      7520  TIP3      H1            -26.0997387078       -4.8242963765        8.4575358414  W2        7520            0.0000000000
     22560      7520  TIP3      H2            -26.0375887078       -5.9298863765        7.4252258414  W2        7520            0.0000000000
     22561      7521  TIP3      OH2           -23.1347287078       -6.5097063765       22.5042558414  W2        7521            0.0000000000
     22562      7521  TIP3      H1            -22.3892487078       -5.9213363765       22.3846558414  W2        7521            0.0000000000
     22563      7521  TIP3      H2            -23.8920487078       -5.9277363765       22.5675658414  W2        7521            0.0000000000
     22564      7522  TIP3      OH2           -34.6922087078       -9.1949163765       25.1083158414  W2        7522            0.0000000000
     22565      7522  TIP3      H1            -34.2840887078      -10.0522563765       24.9873758414  W2        7522            0.0000000000
     22566      7522  TIP3      H2            -34.9524487078       -9.1807863765       26.0293458414  W2        7522            0.0000000000
     22567      7523  TIP3      OH2           -30.0341087078       -8.0790563765       10.1266458414  W2        7523            0.0000000000
     22568      7523  TIP3      H1            -30.4939087078       -8.5632263765       10.8124958414  W2        7523            0.0000000000
     22569      7523  TIP3      H2            -29.7792387078       -8.7475163765        9.4906958414  W2        7523            0.0000000000
     22570      7524  TIP3      OH2           -30.7451787078      -10.1863463765       22.4826058414  W2        7524            0.0000000000
     22571      7524  TIP3      H1            -31.3635687078       -9.5116863765       22.7630758414  W2        7524            0.0000000000
     22572      7524  TIP3      H2            -30.4010587078       -9.8649563765       21.6492258414  W2        7524            0.0000000000
     22573      7525  TIP3      OH2           -28.9630687078       -9.8358763765        8.3889658414  W2        7525            0.0000000000
     22574      7525  TIP3      H1            -29.1435687078       -9.9907563765        7.4617958414  W2        7525            0.0000000000
     22575      7525  TIP3      H2            -28.0130187078       -9.7280063765        8.4337558414  W2        7525            0.0000000000
     22576      7526  TIP3      OH2           -25.7253587078       -7.7148163765       25.7600858414  W2        7526            0.0000000000
     22577      7526  TIP3      H1            -24.7722387078       -7.6309063765       25.7326858414  W2        7526            0.0000000000
     22578      7526  TIP3      H2            -25.8858987078       -8.4266363765       26.3795758414  W2        7526            0.0000000000
     22579      7527  TIP3      OH2           -19.5732387078       -7.4814563765        7.8347758414  W2        7527            0.0000000000
     22580      7527  TIP3      H1            -19.8467587078       -7.9059063765        7.0216058414  W2        7527            0.0000000000
     22581      7527  TIP3      H2            -19.5338287078       -6.5500063765        7.6178158414  W2        7527            0.0000000000
     22582      7528  TIP3      OH2           -30.4058087078      -12.8312663765       23.5649158414  W2        7528            0.0000000000
     22583      7528  TIP3      H1            -30.2557187078      -13.5601363765       22.9628858414  W2        7528            0.0000000000
     22584      7528  TIP3      H2            -30.4035687078      -12.0540963765       23.0061358414  W2        7528            0.0000000000
     22585      7529  TIP3      OH2           -29.9932387078      -14.4616863765       21.0576558414  W2        7529            0.0000000000
     22586      7529  TIP3      H1            -29.4574887078      -14.0100163765       20.4055858414  W2        7529            0.0000000000
     22587      7529  TIP3      H2            -30.8452787078      -14.5697063765       20.6350658414  W2        7529            0.0000000000
     22588      7530  TIP3      OH2           -28.4113987078       -9.0220663765       21.2971758414  W2        7530            0.0000000000
     22589      7530  TIP3      H1            -27.6609187078       -9.1783163765       20.7239558414  W2        7530            0.0000000000
     22590      7530  TIP3      H2            -28.7505687078       -8.1704063765       21.0217258414  W2        7530            0.0000000000
     22591      7531  TIP3      OH2           -23.9957787078      -11.2068863765       26.3257058414  W2        7531            0.0000000000
     22592      7531  TIP3      H1            -23.8036487078      -12.1379463765       26.2141558414  W2        7531            0.0000000000
     22593      7531  TIP3      H2            -23.1381487078      -10.7819363765       26.3152458414  W2        7531            0.0000000000
     22594      7532  TIP3      OH2           -22.6790587078       -8.4183663765       24.4029758414  W2        7532            0.0000000000
     22595      7532  TIP3      H1            -22.9605587078       -7.7089063765       23.8253558414  W2        7532            0.0000000000
     22596      7532  TIP3      H2            -21.7366287078       -8.4910663765       24.2520958414  W2        7532            0.0000000000
     22597      7533  TIP3      OH2           -31.9271787078      -11.6329163765       25.4764758414  W2        7533            0.0000000000
     22598      7533  TIP3      H1            -32.6942787078      -12.1654363765       25.2662358414  W2        7533            0.0000000000
     22599      7533  TIP3      H2            -31.2482787078      -11.9428763765       24.8771058414  W2        7533            0.0000000000
     22600      7534  TIP3      OH2           -29.1876887078      -17.0051163765       21.4890158414  W2        7534            0.0000000000
     22601      7534  TIP3      H1            -29.2857287078      -16.0587963765       21.3836358414  W2        7534            0.0000000000
     22602      7534  TIP3      H2            -29.9300687078      -17.3777363765       21.0133658414  W2        7534            0.0000000000
     22603      7535  TIP3      OH2           -27.9236387078      -12.6835763765       25.0528558414  W2        7535            0.0000000000
     22604      7535  TIP3      H1            -28.1590987078      -12.9029063765       25.9543458414  W2        7535            0.0000000000
     22605      7535  TIP3      H2            -28.7069487078      -12.8904563765       24.5431058414  W2        7535            0.0000000000
     22606      7536  TIP3      OH2           -25.2079787078      -13.5562263765       24.1282058414  W2        7536            0.0000000000
     22607      7536  TIP3      H1            -26.1554387078      -13.5242563765       24.2605358414  W2        7536            0.0000000000
     22608      7536  TIP3      H2            -24.8953087078      -14.1815163765       24.7820258414  W2        7536            0.0000000000
     22609      7537  TIP3      OH2           -23.5738287078      -14.9221163765       26.1333958414  W2        7537            0.0000000000
     22610      7537  TIP3      H1            -23.6706487078      -15.8743863765       26.1275858414  W2        7537            0.0000000000
     22611      7537  TIP3      H2            -23.8955187078      -14.6534363765       26.9939458414  W2        7537            0.0000000000
     22612      7538  TIP3      OH2           -33.7468987078      -13.7125363765       25.1809458414  W2        7538            0.0000000000
     22613      7538  TIP3      H1            -33.5351587078      -14.4189263765       24.5706958414  W2        7538            0.0000000000
     22614      7538  TIP3      H2            -33.8581487078      -14.1499363765       26.0250658414  W2        7538            0.0000000000
     22615      7539  TIP3      OH2           -28.9658787078      -17.7113763765       24.1602958414  W2        7539            0.0000000000
     22616      7539  TIP3      H1            -28.2540387078      -18.3511563765       24.1462058414  W2        7539            0.0000000000
     22617      7539  TIP3      H2            -29.0668387078      -17.4445463765       23.2466058414  W2        7539            0.0000000000
     22618      7540  TIP3      OH2           -28.6121287078      -16.0285363765       26.2139258414  W2        7540            0.0000000000
     22619      7540  TIP3      H1            -28.7439087078      -16.5041563765       25.3937758414  W2        7540            0.0000000000
     22620      7540  TIP3      H2            -29.2113887078      -15.2841763765       26.1586358414  W2        7540            0.0000000000
     22621      7541  TIP3      OH2           -29.0658987078        0.8544936235        9.3903258414  W2        7541            0.0000000000
     22622      7541  TIP3      H1            -28.1328287078        1.0123636235        9.5341658414  W2        7541            0.0000000000
     22623      7541  TIP3      H2            -29.3300187078        1.5297936235        8.7654758414  W2        7541            0.0000000000
     22624      7542  TIP3      OH2           -35.4974087078       -4.5091263765        8.8731358414  W2        7542            0.0000000000
     22625      7542  TIP3      H1            -34.5834887078       -4.4302363765        9.1465258414  W2        7542            0.0000000000
     22626      7542  TIP3      H2            -35.4900987078       -5.1961663765        8.2066958414  W2        7542            0.0000000000
     22627      7543  TIP3      OH2           -36.8483487078        0.8837236235       13.9505258414  W2        7543            0.0000000000
     22628      7543  TIP3      H1            -37.4956387078        0.4218936235       13.4176458414  W2        7543            0.0000000000
     22629      7543  TIP3      H2            -36.4938887078        0.2120536235       14.5331458414  W2        7543            0.0000000000
     22630      7544  TIP3      OH2           -35.9784287078       -1.0355763765       15.7551458414  W2        7544            0.0000000000
     22631      7544  TIP3      H1            -36.3127487078       -1.9158463765       15.9271658414  W2        7544            0.0000000000
     22632      7544  TIP3      H2            -35.7561887078       -0.6900763765       16.6197058414  W2        7544            0.0000000000
     22633      7545  TIP3      OH2           -18.4299487078       -0.2259363765       18.7356258414  W2        7545            0.0000000000
     22634      7545  TIP3      H1            -18.4512787078       -0.0410963765       19.6745658414  W2        7545            0.0000000000
     22635      7545  TIP3      H2            -17.7393287078        0.3424636235       18.3947658414  W2        7545            0.0000000000
     22636      7546  TIP3      OH2           -18.8666587078       -0.6588263765       21.6575358414  W2        7546            0.0000000000
     22637      7546  TIP3      H1            -19.3537887078       -1.3944163765       21.2862758414  W2        7546            0.0000000000
     22638      7546  TIP3      H2            -18.3173887078       -1.0524363765       22.3354758414  W2        7546            0.0000000000
     22639      7547  TIP3      OH2           -20.4159287078       -4.8690163765       26.2955658414  W2        7547            0.0000000000
     22640      7547  TIP3      H1            -21.2818187078       -4.9740463765       26.6897958414  W2        7547            0.0000000000
     22641      7547  TIP3      H2            -20.0393387078       -4.1106863765       26.7420358414  W2        7547            0.0000000000
     22642      7548  TIP3      OH2           -19.1149587078       -6.6126463765       11.8098158414  W2        7548            0.0000000000
     22643      7548  TIP3      H1            -18.2648187078       -6.1915563765       11.9369758414  W2        7548            0.0000000000
     22644      7548  TIP3      H2            -19.1094487078       -7.3526363765       12.4169558414  W2        7548            0.0000000000
     22645      7549  TIP3      OH2           -18.7203987078       -8.5589063765       13.6333858414  W2        7549            0.0000000000
     22646      7549  TIP3      H1            -19.4469387078       -9.0386463765       14.0311458414  W2        7549            0.0000000000
     22647      7549  TIP3      H2            -18.1390687078       -8.3534363765       14.3655458414  W2        7549            0.0000000000
     22648      7550  TIP3      OH2           -18.9612787078       -5.7741563765       18.5811458414  W2        7550            0.0000000000
     22649      7550  TIP3      H1            -18.1278587078       -6.1521563765       18.3005058414  W2        7550            0.0000000000
     22650      7550  TIP3      H2            -18.8492487078       -4.8310363765       18.4620558414  W2        7550            0.0000000000
     22651      7551  TIP3      OH2           -20.4750487078       -2.8964063765       20.8879858414  W2        7551            0.0000000000
     22652      7551  TIP3      H1            -21.1225187078       -2.5712563765       21.5135058414  W2        7551            0.0000000000
     22653      7551  TIP3      H2            -20.9926487078       -3.3366363765       20.2138158414  W2        7551            0.0000000000
     22654      7552  TIP3      OH2           -18.4520887078       -8.6580563765       10.0245158414  W2        7552            0.0000000000
     22655      7552  TIP3      H1            -18.9739787078       -8.3016463765        9.3056058414  W2        7552            0.0000000000
     22656      7552  TIP3      H2            -18.4851687078       -7.9832763765       10.7026058414  W2        7552            0.0000000000
     22657      7553  TIP3      OH2           -20.1031887078      -11.4184963765        8.5752258414  W2        7553            0.0000000000
     22658      7553  TIP3      H1            -20.0067487078      -10.7517963765        7.8951958414  W2        7553            0.0000000000
     22659      7553  TIP3      H2            -20.2432287078      -12.2338663765        8.0937758414  W2        7553            0.0000000000
     22660      7554  TIP3      OH2           -20.9337187078      -10.0382563765       14.1962558414  W2        7554            0.0000000000
     22661      7554  TIP3      H1            -21.0838387078      -10.9833963765       14.1760358414  W2        7554            0.0000000000
     22662      7554  TIP3      H2            -21.2872687078       -9.7571163765       15.0401658414  W2        7554            0.0000000000
     22663      7555  TIP3      OH2           -35.8984787078       -7.9600363765       18.2066358414  W2        7555            0.0000000000
     22664      7555  TIP3      H1            -35.7141887078       -8.0418663765       17.2709258414  W2        7555            0.0000000000
     22665      7555  TIP3      H2            -35.0491887078       -8.0843363765       18.6302758414  W2        7555            0.0000000000
     22666      7556  TIP3      OH2           -20.0774287078       -8.0679263765       23.8350858414  W2        7556            0.0000000000
     22667      7556  TIP3      H1            -19.4946987078       -8.8026963765       24.0268058414  W2        7556            0.0000000000
     22668      7556  TIP3      H2            -19.5134987078       -7.2958963765       23.8816658414  W2        7556            0.0000000000
     22669      7557  TIP3      OH2           -18.5807187078      -10.1653463765       24.5196258414  W2        7557            0.0000000000
     22670      7557  TIP3      H1            -19.4440487078      -10.5441363765       24.3540958414  W2        7557            0.0000000000
     22671      7557  TIP3      H2            -17.9763487078      -10.9038663765       24.4452058414  W2        7557            0.0000000000
     22672      7558  TIP3      OH2           -20.8558087078      -14.0105163765        7.6927758414  W2        7558            0.0000000000
     22673      7558  TIP3      H1            -20.2452287078      -14.3818363765        8.3295958414  W2        7558            0.0000000000
     22674      7558  TIP3      H2            -21.6926587078      -14.4318263765        7.8887758414  W2        7558            0.0000000000
     22675      7559  TIP3      OH2           -21.2232387078      -12.4556763765       12.6587658414  W2        7559            0.0000000000
     22676      7559  TIP3      H1            -20.9435287078      -13.3626363765       12.7829358414  W2        7559            0.0000000000
     22677      7559  TIP3      H2            -20.4640687078      -12.0215263765       12.2696858414  W2        7559            0.0000000000
     22678      7560  TIP3      OH2           -20.6114087078      -11.8739363765       18.0946558414  W2        7560            0.0000000000
     22679      7560  TIP3      H1            -19.6786087078      -11.6619463765       18.0602558414  W2        7560            0.0000000000
     22680      7560  TIP3      H2            -20.8466587078      -11.7727263765       19.0169558414  W2        7560            0.0000000000
     22681      7561  TIP3      OH2           -20.5822187078      -11.1374063765       20.8705958414  W2        7561            0.0000000000
     22682      7561  TIP3      H1            -21.4250887078      -10.8693663765       21.2365758414  W2        7561            0.0000000000
     22683      7561  TIP3      H2            -20.1397887078      -10.3152163765       20.6597058414  W2        7561            0.0000000000
     22684      7562  TIP3      OH2           -36.3009987078      -12.6895363765       24.3475158414  W2        7562            0.0000000000
     22685      7562  TIP3      H1            -35.3815087078      -12.8117063765       24.5838258414  W2        7562            0.0000000000
     22686      7562  TIP3      H2            -36.7505487078      -13.4395663765       24.7368658414  W2        7562            0.0000000000
     22687      7563  TIP3      OH2           -18.2990587078      -17.1573863765       26.2240958414  W2        7563            0.0000000000
     22688      7563  TIP3      H1            -17.9493587078      -17.8110363765       25.6185658414  W2        7563            0.0000000000
     22689      7563  TIP3      H2            -18.1521087078      -16.3199763765       25.7843558414  W2        7563            0.0000000000
     22690      7564  TIP3      OH2           -20.6097587078      -15.1927463765       12.7069658414  W2        7564            0.0000000000
     22691      7564  TIP3      H1            -20.4272587078      -15.6415963765       13.5324658414  W2        7564            0.0000000000
     22692      7564  TIP3      H2            -21.2094687078      -15.7773063765       12.2434258414  W2        7564            0.0000000000
     22693      7565  TIP3      OH2           -35.0797487078      -14.3773763765       17.2388058414  W2        7565            0.0000000000
     22694      7565  TIP3      H1            -34.6345887078      -15.1691263765       17.5407758414  W2        7565            0.0000000000
     22695      7565  TIP3      H2            -34.6134487078      -13.6608563765       17.6693658414  W2        7565            0.0000000000
     22696      7566  TIP3      OH2           -36.7757187078      -11.3780763765       18.3078258414  W2        7566            0.0000000000
     22697      7566  TIP3      H1            -36.2837387078      -11.5990263765       17.5170258414  W2        7566            0.0000000000
     22698      7566  TIP3      H2            -36.4136287078      -10.5377363765       18.5887758414  W2        7566            0.0000000000
     22699      7567  TIP3      OH2           -18.7793387078      -15.0479263765       24.5732258414  W2        7567            0.0000000000
     22700      7567  TIP3      H1            -19.6967687078      -14.7772163765       24.5375758414  W2        7567            0.0000000000
     22701      7567  TIP3      H2            -18.6563987078      -15.5830863765       23.7891958414  W2        7567            0.0000000000
     22702      7568  TIP3      OH2           -18.7431387078      -15.1249363765        9.2349958414  W2        7568            0.0000000000
     22703      7568  TIP3      H1            -18.3308787078      -15.8463663765        8.7597958414  W2        7568            0.0000000000
     22704      7568  TIP3      H2            -18.0614887078      -14.4554763765        9.2934258414  W2        7568            0.0000000000
     22705      7569  TIP3      OH2           -36.4620687078      -15.1201663765       12.3620658414  W2        7569            0.0000000000
     22706      7569  TIP3      H1            -37.3872287078      -14.9115063765       12.2326158414  W2        7569            0.0000000000
     22707      7569  TIP3      H2            -36.0080787078      -14.6360863765       11.6722958414  W2        7569            0.0000000000
     22708      7570  TIP3      OH2           -21.6913487078       -0.1359963765       14.3078058414  W2        7570            0.0000000000
     22709      7570  TIP3      H1            -21.0390587078       -0.4837863765       13.6997158414  W2        7570            0.0000000000
     22710      7570  TIP3      H2            -21.1809687078        0.3523236235       14.9537758414  W2        7570            0.0000000000
     22711      7571  TIP3      OH2           -36.4985287078      -16.3822663765       20.7063158414  W2        7571            0.0000000000
     22712      7571  TIP3      H1            -37.1634787078      -16.6282363765       21.3494058414  W2        7571            0.0000000000
     22713      7571  TIP3      H2            -36.9413987078      -15.7602263765       20.1291158414  W2        7571            0.0000000000
     22714      7572  TIP3      OH2           -34.3065987078       -3.2068563765       24.8508958414  W2        7572            0.0000000000
     22715      7572  TIP3      H1            -35.1273487078       -3.0322063765       24.3903658414  W2        7572            0.0000000000
     22716      7572  TIP3      H2            -34.5588187078       -3.2803863765       25.7713358414  W2        7572            0.0000000000
     22717      7573  TIP3      OH2           -31.3523087078       -2.2327363765       21.1092958414  W2        7573            0.0000000000
     22718      7573  TIP3      H1            -31.7771987078       -1.4228863765       20.8267558414  W2        7573            0.0000000000
     22719      7573  TIP3      H2            -30.4480287078       -2.1473263765       20.8072758414  W2        7573            0.0000000000
     22720      7574  TIP3      OH2           -27.0411687078       -0.8337363765       24.0686658414  W2        7574            0.0000000000
     22721      7574  TIP3      H1            -26.8564187078       -1.1671263765       24.9466958414  W2        7574            0.0000000000
     22722      7574  TIP3      H2            -26.1947187078       -0.5238763765       23.7465858414  W2        7574            0.0000000000
     22723      7575  TIP3      OH2           -24.6961287078        0.4521536235       23.3128058414  W2        7575            0.0000000000
     22724      7575  TIP3      H1            -24.0192387078       -0.1806163765       23.0727258414  W2        7575            0.0000000000
     22725      7575  TIP3      H2            -24.3742487078        0.8532036235       24.1201358414  W2        7575            0.0000000000
     22726      7576  TIP3      OH2           -19.7787487078      -16.9582963765       22.3923058414  W2        7576            0.0000000000
     22727      7576  TIP3      H1            -20.5913987078      -16.6332663765       22.0047758414  W2        7576            0.0000000000
     22728      7576  TIP3      H2            -19.5458987078      -17.7184463765       21.8592158414  W2        7576            0.0000000000
     22729      7577  TIP3      OH2           -33.9506387078        1.0236536235       21.1568258414  W2        7577            0.0000000000
     22730      7577  TIP3      H1            -34.6709987078        1.4637536235       20.7055958414  W2        7577            0.0000000000
     22731      7577  TIP3      H2            -34.3162387078        0.7731236235       22.0052258414  W2        7577            0.0000000000
     22732      7578  TIP3      OH2           -31.4833787078        0.6240436235       20.1865458414  W2        7578            0.0000000000
     22733      7578  TIP3      H1            -32.3481587078        0.6958936235       20.5905558414  W2        7578            0.0000000000
     22734      7578  TIP3      H2            -31.5384787078        1.1707736235       19.4027958414  W2        7578            0.0000000000
     22735      7579  TIP3      OH2           -26.7728187078        0.5119336235       19.3621458414  W2        7579            0.0000000000
     22736      7579  TIP3      H1            -27.2294187078        1.0409036235       18.7079858414  W2        7579            0.0000000000
     22737      7579  TIP3      H2            -26.6100187078        1.1150736235       20.0873758414  W2        7579            0.0000000000
     22738      7580  TIP3      OH2           -24.4451887078       -0.6101063765       20.3071758414  W2        7580            0.0000000000
     22739      7580  TIP3      H1            -25.3498187078       -0.4450863765       20.0413858414  W2        7580            0.0000000000
     22740      7580  TIP3      H2            -24.0163287078        0.2431136235       20.2415158414  W2        7580            0.0000000000
     22741      7581  TIP3      OH2           -21.8409987078        0.9598036235       20.6019558414  W2        7581            0.0000000000
     22742      7581  TIP3      H1            -22.0227987078        1.8756936235       20.3914458414  W2        7581            0.0000000000
     22743      7581  TIP3      H2            -21.6642187078        0.5495136235       19.7554158414  W2        7581            0.0000000000
     22744      7582  TIP3      OH2           -34.5358287078       -0.3530963765       18.0670058414  W2        7582            0.0000000000
     22745      7582  TIP3      H1            -34.5542287078       -0.7785863765       18.9242358414  W2        7582            0.0000000000
     22746      7582  TIP3      H2            -33.7310387078       -0.6715963765       17.6582258414  W2        7582            0.0000000000
     22747      7583  TIP3      OH2           -32.3945187078       -1.6432263765       16.7219958414  W2        7583            0.0000000000
     22748      7583  TIP3      H1            -32.6134487078       -2.5594863765       16.8915958414  W2        7583            0.0000000000
     22749      7583  TIP3      H2            -31.5702987078       -1.5031863765       17.1881358414  W2        7583            0.0000000000
     22750      7584  TIP3      OH2           -29.8572687078       -1.1732963765       17.5707958414  W2        7584            0.0000000000
     22751      7584  TIP3      H1            -29.6446987078       -2.0613963765       17.2838858414  W2        7584            0.0000000000
     22752      7584  TIP3      H2            -29.7927587078       -1.2075263765       18.5251958414  W2        7584            0.0000000000
     22753      7585  TIP3      OH2           -26.3488987078      -15.5092363765       16.7151258414  W2        7585            0.0000000000
     22754      7585  TIP3      H1            -27.0232187078      -16.1386763765       16.9707058414  W2        7585            0.0000000000
     22755      7585  TIP3      H2            -25.7849787078      -15.9933463765       16.1119158414  W2        7585            0.0000000000
     22756      7586  TIP3      OH2           -21.2061787078      -17.4018363765       16.8278358414  W2        7586            0.0000000000
     22757      7586  TIP3      H1            -20.6024187078      -16.8542963765       16.3259358414  W2        7586            0.0000000000
     22758      7586  TIP3      H2            -22.0759787078      -17.0827963765       16.5872458414  W2        7586            0.0000000000
     22759      7587  TIP3      OH2           -19.4791387078      -16.2629663765       15.1609258414  W2        7587            0.0000000000
     22760      7587  TIP3      H1            -18.8673887078      -16.7773963765       14.6342858414  W2        7587            0.0000000000
     22761      7587  TIP3      H2            -19.0967987078      -15.3857563765       15.1843658414  W2        7587            0.0000000000
     22762      7588  TIP3      OH2           -34.0221487078      -16.8752063765       14.5371158414  W2        7588            0.0000000000
     22763      7588  TIP3      H1            -34.7991687078      -17.1097163765       14.0297058414  W2        7588            0.0000000000
     22764      7588  TIP3      H2            -33.4917887078      -17.6719963765       14.5459158414  W2        7588            0.0000000000
     22765      7589  TIP3      OH2           -35.1858087078      -17.0773963765       10.3407258414  W2        7589            0.0000000000
     22766      7589  TIP3      H1            -34.7467387078      -16.4663463765        9.7490758414  W2        7589            0.0000000000
     22767      7589  TIP3      H2            -35.8195687078      -16.5389863765       10.8147258414  W2        7589            0.0000000000
     22768      7590  TIP3      OH2           -29.4428887078      -16.9484963765       14.3504258414  W2        7590            0.0000000000
     22769      7590  TIP3      H1            -28.5685487078      -16.5600663765       14.3208558414  W2        7590            0.0000000000
     22770      7590  TIP3      H2            -29.5788087078      -17.1637163765       15.2731458414  W2        7590            0.0000000000
     22771      7591  TIP3      OH2           -23.8860487078      -16.9185163765       15.9995958414  W2        7591            0.0000000000
     22772      7591  TIP3      H1            -23.8098887078      -16.8233563765       15.0501958414  W2        7591            0.0000000000
     22773      7591  TIP3      H2            -24.1611287078      -17.8262263765       16.1285058414  W2        7591            0.0000000000
     22774      7592  TIP3      OH2           -22.5327887078      -16.8927363765       11.6920958414  W2        7592            0.0000000000
     22775      7592  TIP3      H1            -23.2356787078      -16.2778163765       11.4822358414  W2        7592            0.0000000000
     22776      7592  TIP3      H2            -22.9776487078      -17.7300663765       11.8231858414  W2        7592            0.0000000000
     22777      7593  TIP3      OH2           -35.2848587078       -1.1291763765       11.2382358414  W2        7593            0.0000000000
     22778      7593  TIP3      H1            -35.9698687078       -1.1672863765       10.5707458414  W2        7593            0.0000000000
     22779      7593  TIP3      H2            -35.2811387078       -0.2164163765       11.5264458414  W2        7593            0.0000000000
     22780      7594  TIP3      OH2           -33.3248987078      -15.1612463765        8.7831358414  W2        7594            0.0000000000
     22781      7594  TIP3      H1            -32.8335587078      -15.7910063765        8.2556858414  W2        7594            0.0000000000
     22782      7594  TIP3      H2            -32.7012687078      -14.8653063765        9.4462558414  W2        7594            0.0000000000
     22783      7595  TIP3      OH2           -28.2988887078      -14.8680963765       11.2401858414  W2        7595            0.0000000000
     22784      7595  TIP3      H1            -28.1207587078      -15.5147763765       11.9230458414  W2        7595            0.0000000000
     22785      7595  TIP3      H2            -28.3522687078      -14.0343263765       11.7072958414  W2        7595            0.0000000000
     22786      7596  TIP3      OH2           -26.4205087078        0.0803136235        9.6358558414  W2        7596            0.0000000000
     22787      7596  TIP3      H1            -25.5544887078        0.4470536235        9.4576758414  W2        7596            0.0000000000
     22788      7596  TIP3      H2            -26.6672287078       -0.3588863765        8.8219358414  W2        7596            0.0000000000
     22789      7597  TIP3      OH2           -19.7115487078       -0.3566563765       12.3149658414  W2        7597            0.0000000000
     22790      7597  TIP3      H1            -19.9058387078       -1.1044463765       11.7499258414  W2        7597            0.0000000000
     22791      7597  TIP3      H2            -19.7505387078        0.4013536235       11.7317558414  W2        7597            0.0000000000
     22792      7598  TIP3      OH2           -34.0643487078      -16.3610163765       24.0547358414  W2        7598            0.0000000000
     22793      7598  TIP3      H1            -34.4305287078      -17.1267563765       24.4972058414  W2        7598            0.0000000000
     22794      7598  TIP3      H2            -33.1514987078      -16.3319963765       24.3412458414  W2        7598            0.0000000000
     22795      7599  TIP3      OH2           -32.0912687078      -17.0105763765       25.5904458414  W2        7599            0.0000000000
     22796      7599  TIP3      H1            -31.1929087078      -17.2845563765       25.4057858414  W2        7599            0.0000000000
     22797      7599  TIP3      H2            -32.4779587078      -17.7529763765       26.0547058414  W2        7599            0.0000000000
     22798      7600  TIP3      OH2           -33.4667387078       -0.2090963765        8.2634458414  W2        7600            0.0000000000
     22799      7600  TIP3      H1            -33.7342787078        0.0771936235        9.1367558414  W2        7600            0.0000000000
     22800      7600  TIP3      H2            -32.6954787078       -0.7551763765        8.4156958414  W2        7600            0.0000000000
     22801      7601  TIP3      OH2           -23.6700387078      -17.6780463765       25.7727258414  W2        7601            0.0000000000
     22802      7601  TIP3      H1            -23.5933187078      -18.1039763765       26.6264958414  W2        7601            0.0000000000
     22803      7601  TIP3      H2            -22.7763787078      -17.6645763765       25.4300758414  W2        7601            0.0000000000
     22804      7602  TIP3      OH2           -20.4939287078       -1.6054163765       24.4651458414  W2        7602            0.0000000000
     22805      7602  TIP3      H1            -21.2757387078       -1.7916163765       23.9452058414  W2        7602            0.0000000000
     22806      7602  TIP3      H2            -20.5659387078       -0.6759863765       24.6823958414  W2        7602            0.0000000000
     22807      7603  TIP3      OH2            -6.0878887078       -7.7189763765       14.4958658414  W2        7603            0.0000000000
     22808      7603  TIP3      H1             -5.9987787078       -6.7751563765       14.3635758414  W2        7603            0.0000000000
     22809      7603  TIP3      H2             -6.7261287078       -7.9943363765       13.8378058414  W2        7603            0.0000000000
     22810      7604  TIP3      OH2            -7.1547587078       -8.4639063765       17.9146858414  W2        7604            0.0000000000
     22811      7604  TIP3      H1             -7.1930087078       -9.1102763765       18.6196458414  W2        7604            0.0000000000
     22812      7604  TIP3      H2             -7.4771087078       -8.9304663765       17.1435558414  W2        7604            0.0000000000
     22813      7605  TIP3      OH2           -14.7862587078       -8.8496963765       19.5076758414  W2        7605            0.0000000000
     22814      7605  TIP3      H1            -14.7450487078       -9.4753663765       20.2309158414  W2        7605            0.0000000000
     22815      7605  TIP3      H2            -14.0834887078       -8.2258363765       19.6897158414  W2        7605            0.0000000000
     22816      7606  TIP3      OH2            -3.4487387078       -5.5248663765       16.2161958414  W2        7606            0.0000000000
     22817      7606  TIP3      H1             -3.8894687078       -6.2452663765       16.6667558414  W2        7606            0.0000000000
     22818      7606  TIP3      H2             -3.4617687078       -4.8041463765       16.8459658414  W2        7606            0.0000000000
     22819      7607  TIP3      OH2           -13.8629487078       -4.3998063765       18.0425858414  W2        7607            0.0000000000
     22820      7607  TIP3      H1            -14.2324287078       -5.2017563765       17.6730158414  W2        7607            0.0000000000
     22821      7607  TIP3      H2            -12.9218387078       -4.5683163765       18.0889258414  W2        7607            0.0000000000
     22822      7608  TIP3      OH2           -17.2528987078      -10.7395463765       13.4354658414  W2        7608            0.0000000000
     22823      7608  TIP3      H1            -17.7005587078       -9.8936763765       13.4171158414  W2        7608            0.0000000000
     22824      7608  TIP3      H2            -17.8137787078      -11.3191263765       12.9199758414  W2        7608            0.0000000000
     22825      7609  TIP3      OH2           -16.5422887078       -8.5775863765       15.5612658414  W2        7609            0.0000000000
     22826      7609  TIP3      H1            -16.3289387078       -9.3474263765       16.0885658414  W2        7609            0.0000000000
     22827      7609  TIP3      H2            -15.8045287078       -8.4879163765       14.9580258414  W2        7609            0.0000000000
     22828      7610  TIP3      OH2            -6.3371887078       -0.4206963765       16.4282358414  W2        7610            0.0000000000
     22829      7610  TIP3      H1             -5.7175487078       -1.0972263765       16.1551558414  W2        7610            0.0000000000
     22830      7610  TIP3      H2             -6.5454487078       -0.6386163765       17.3367258414  W2        7610            0.0000000000
     22831      7611  TIP3      OH2            -8.7653187078       -6.0317663765       18.3207858414  W2        7611            0.0000000000
     22832      7611  TIP3      H1             -8.4615287078       -6.7176263765       17.7261958414  W2        7611            0.0000000000
     22833      7611  TIP3      H2             -8.0439187078       -5.9128963765       18.9385858414  W2        7611            0.0000000000
     22834      7612  TIP3      OH2            -0.1023387078      -14.4302363765       19.1814058414  W2        7612            0.0000000000
     22835      7612  TIP3      H1             -0.0531187078      -13.8201163765       19.9173158414  W2        7612            0.0000000000
     22836      7612  TIP3      H2              0.3231712922      -13.9691463765       18.4585158414  W2        7612            0.0000000000
     22837      7613  TIP3      OH2            -5.6246187078      -11.6375263765       18.6482658414  W2        7613            0.0000000000
     22838      7613  TIP3      H1             -5.4820287078      -12.5838263765       18.6684258414  W2        7613            0.0000000000
     22839      7613  TIP3      H2             -5.7307187078      -11.4305463765       17.7197558414  W2        7613            0.0000000000
     22840      7614  TIP3      OH2           -12.4697887078      -13.5358863765       15.9207458414  W2        7614            0.0000000000
     22841      7614  TIP3      H1            -12.4266787078      -12.6760363765       15.5023758414  W2        7614            0.0000000000
     22842      7614  TIP3      H2            -12.9273787078      -14.0884163765       15.2870658414  W2        7614            0.0000000000
     22843      7615  TIP3      OH2            -4.7475187078      -13.4053263765       14.3215758414  W2        7615            0.0000000000
     22844      7615  TIP3      H1             -4.1010887078      -13.7340063765       14.9463358414  W2        7615            0.0000000000
     22845      7615  TIP3      H2             -4.2375787078      -12.8874263765       13.6987158414  W2        7615            0.0000000000
     22846      7616  TIP3      OH2           -15.8496387078      -11.1393063765       16.6828858414  W2        7616            0.0000000000
     22847      7616  TIP3      H1            -15.1959787078      -11.6891363765       17.1148958414  W2        7616            0.0000000000
     22848      7616  TIP3      H2            -15.8257087078      -11.4134063765       15.7660858414  W2        7616            0.0000000000
     22849      7617  TIP3      OH2           -10.6931887078       -9.5891763765       15.8980358414  W2        7617            0.0000000000
     22850      7617  TIP3      H1            -10.0770887078      -10.1156363765       16.4074358414  W2        7617            0.0000000000
     22851      7617  TIP3      H2            -11.2793087078      -10.2293063765       15.4943958414  W2        7617            0.0000000000
     22852      7618  TIP3      OH2             0.2891212922      -12.9523163765       21.4173858414  W2        7618            0.0000000000
     22853      7618  TIP3      H1             -0.3994187078      -12.2942463765       21.3220458414  W2        7618            0.0000000000
     22854      7618  TIP3      H2              0.3045812922      -13.1495263765       22.3539258414  W2        7618            0.0000000000
     22855      7619  TIP3      OH2           -13.6595987078      -14.6180463765       19.9948258414  W2        7619            0.0000000000
     22856      7619  TIP3      H1            -13.8784287078      -14.0879863765       19.2284258414  W2        7619            0.0000000000
     22857      7619  TIP3      H2            -14.3275087078      -14.3914963765       20.6419658414  W2        7619            0.0000000000
     22858      7620  TIP3      OH2            -6.2906187078       -5.1179363765       13.5387358414  W2        7620            0.0000000000
     22859      7620  TIP3      H1             -6.5861087078       -5.4407063765       12.6874258414  W2        7620            0.0000000000
     22860      7620  TIP3      H2             -6.6148387078       -4.2182663765       13.5799958414  W2        7620            0.0000000000
     22861      7621  TIP3      OH2           -11.0904587078       -6.9424763765       20.2821958414  W2        7621            0.0000000000
     22862      7621  TIP3      H1            -11.8305487078       -6.3443263765       20.3857158414  W2        7621            0.0000000000
     22863      7621  TIP3      H2            -10.3765087078       -6.3885163765       19.9665558414  W2        7621            0.0000000000
     22864      7622  TIP3      OH2            -2.9836787078      -14.1143963765       16.3021658414  W2        7622            0.0000000000
     22865      7622  TIP3      H1             -3.1988787078      -14.8800563765       16.8347658414  W2        7622            0.0000000000
     22866      7622  TIP3      H2             -2.3279387078      -13.6419363765       16.8150158414  W2        7622            0.0000000000
     22867      7623  TIP3      OH2           -14.0658687078      -12.7258663765       17.9470458414  W2        7623            0.0000000000
     22868      7623  TIP3      H1            -13.4522387078      -12.0931063765       18.3202858414  W2        7623            0.0000000000
     22869      7623  TIP3      H2            -13.5537987078      -13.1983663765       17.2907358414  W2        7623            0.0000000000
     22870      7624  TIP3      OH2           -12.6830287078       -4.9781763765       21.0693458414  W2        7624            0.0000000000
     22871      7624  TIP3      H1            -12.6882687078       -4.0988263765       20.6912758414  W2        7624            0.0000000000
     22872      7624  TIP3      H2            -13.5366187078       -5.0617663765       21.4943358414  W2        7624            0.0000000000
     22873      7625  TIP3      OH2           -16.5619387078       -5.3073863765       11.8512758414  W2        7625            0.0000000000
     22874      7625  TIP3      H1            -16.8338487078       -5.0782863765       10.9625658414  W2        7625            0.0000000000
     22875      7625  TIP3      H2            -16.5163687078       -4.4695063765       12.3118058414  W2        7625            0.0000000000
     22876      7626  TIP3      OH2            -2.9369687078       -3.6857963765       18.5641258414  W2        7626            0.0000000000
     22877      7626  TIP3      H1             -3.8785987078       -3.6274063765       18.7258158414  W2        7626            0.0000000000
     22878      7626  TIP3      H2             -2.6603587078       -2.7797463765       18.4270958414  W2        7626            0.0000000000
     22879      7627  TIP3      OH2            -2.6362687078      -15.3992663765       19.9815158414  W2        7627            0.0000000000
     22880      7627  TIP3      H1             -3.3723487078      -14.7885563765       19.9436458414  W2        7627            0.0000000000
     22881      7627  TIP3      H2             -1.9528687078      -14.9843663765       19.4551558414  W2        7627            0.0000000000
     22882      7628  TIP3      OH2            -9.6331287078      -17.3125363765       17.4473158414  W2        7628            0.0000000000
     22883      7628  TIP3      H1             -9.7507087078      -18.2609363765       17.3931458414  W2        7628            0.0000000000
     22884      7628  TIP3      H2            -10.4881187078      -16.9799263765       17.7204258414  W2        7628            0.0000000000
     22885      7629  TIP3      OH2            -4.6848487078       -1.9044463765       15.1892858414  W2        7629            0.0000000000
     22886      7629  TIP3      H1             -4.2596187078       -2.6116563765       14.7042458414  W2        7629            0.0000000000
     22887      7629  TIP3      H2             -4.3678487078       -1.1031763765       14.7725058414  W2        7629            0.0000000000
     22888      7630  TIP3      OH2            -3.5251987078       -4.0035963765       13.6979458414  W2        7630            0.0000000000
     22889      7630  TIP3      H1             -3.7827187078       -4.6935863765       13.0865358414  W2        7630            0.0000000000
     22890      7630  TIP3      H2             -3.4541187078       -4.4464763765       14.5435358414  W2        7630            0.0000000000
     22891      7631  TIP3      OH2            -1.8391787078       -5.4369263765       22.1752958414  W2        7631            0.0000000000
     22892      7631  TIP3      H1             -1.6995487078       -6.0286763765       21.4359958414  W2        7631            0.0000000000
     22893      7631  TIP3      H2             -1.6718987078       -4.5643363765       21.8191758414  W2        7631            0.0000000000
     22894      7632  TIP3      OH2            -7.3666387078       -8.4749763765       11.9478958414  W2        7632            0.0000000000
     22895      7632  TIP3      H1             -8.0780887078       -7.9400063765       11.5959458414  W2        7632            0.0000000000
     22896      7632  TIP3      H2             -6.6756787078       -8.4197663765       11.2877858414  W2        7632            0.0000000000
     22897      7633  TIP3      OH2            -7.3127187078      -10.0175463765        8.9863958414  W2        7633            0.0000000000
     22898      7633  TIP3      H1             -6.6117287078       -9.9948563765        9.6377958414  W2        7633            0.0000000000
     22899      7633  TIP3      H2             -7.0104287078      -10.6455763765        8.3303258414  W2        7633            0.0000000000
     22900      7634  TIP3      OH2             0.0027512922       -9.0971263765       20.2413358414  W2        7634            0.0000000000
     22901      7634  TIP3      H1             -0.6498387078       -8.4025663765       20.3304258414  W2        7634            0.0000000000
     22902      7634  TIP3      H2              0.4677812922       -8.8870363765       19.4314958414  W2        7634            0.0000000000
     22903      7635  TIP3      OH2            -3.9608687078       -8.2656463765       12.8994858414  W2        7635            0.0000000000
     22904      7635  TIP3      H1             -4.6927687078       -8.0372763765       13.4725458414  W2        7635            0.0000000000
     22905      7635  TIP3      H2             -3.5136487078       -8.9793763765       13.3542358414  W2        7635            0.0000000000
     22906      7636  TIP3      OH2            -4.0635187078      -10.0913863765       21.9671858414  W2        7636            0.0000000000
     22907      7636  TIP3      H1             -3.9836087078       -9.3279463765       22.5390358414  W2        7636            0.0000000000
     22908      7636  TIP3      H2             -4.6647487078       -9.8121463765       21.2766958414  W2        7636            0.0000000000
     22909      7637  TIP3      OH2           -12.3154987078       -7.6350263765       14.7819858414  W2        7637            0.0000000000
     22910      7637  TIP3      H1            -12.6459787078       -8.0056863765       13.9636858414  W2        7637            0.0000000000
     22911      7637  TIP3      H2            -11.7270887078       -8.3056263765       15.1288158414  W2        7637            0.0000000000
     22912      7638  TIP3      OH2           -10.9487487078       -4.2069663765       17.4632058414  W2        7638            0.0000000000
     22913      7638  TIP3      H1            -11.0436187078       -4.7856563765       16.7066658414  W2        7638            0.0000000000
     22914      7638  TIP3      H2            -10.2193887078       -4.5783963765       17.9594858414  W2        7638            0.0000000000
     22915      7639  TIP3      OH2           -11.9489487078       -8.8664663765       18.4154858414  W2        7639            0.0000000000
     22916      7639  TIP3      H1            -11.3836987078       -8.7450463765       17.6526058414  W2        7639            0.0000000000
     22917      7639  TIP3      H2            -11.6300587078       -8.2289663765       19.0543358414  W2        7639            0.0000000000
     22918      7640  TIP3      OH2            -5.6397287078       -3.3632763765       19.1495358414  W2        7640            0.0000000000
     22919      7640  TIP3      H1             -5.8800687078       -2.7009663765       19.7974558414  W2        7640            0.0000000000
     22920      7640  TIP3      H2             -5.8379087078       -4.1977563765       19.5744958414  W2        7640            0.0000000000
     22921      7641  TIP3      OH2           -11.0688787078       -4.4671963765       23.1326758414  W2        7641            0.0000000000
     22922      7641  TIP3      H1            -11.3801287078       -3.6848763765       23.5879958414  W2        7641            0.0000000000
     22923      7641  TIP3      H2            -11.7188587078       -4.6202863765       22.4468758414  W2        7641            0.0000000000
     22924      7642  TIP3      OH2            -5.0899187078       -9.1033563765       10.5846058414  W2        7642            0.0000000000
     22925      7642  TIP3      H1             -4.5103687078       -8.9533263765       11.3314958414  W2        7642            0.0000000000
     22926      7642  TIP3      H2             -4.6759187078       -8.6326163765        9.8612458414  W2        7642            0.0000000000
     22927      7643  TIP3      OH2           -14.1488887078       -8.2690863765       22.3612458414  W2        7643            0.0000000000
     22928      7643  TIP3      H1            -14.0785687078       -7.6184063765       23.0597458414  W2        7643            0.0000000000
     22929      7643  TIP3      H2            -15.0396687078       -8.1663363765       22.0263358414  W2        7643            0.0000000000
     22930      7644  TIP3      OH2            -7.3634287078       -2.3665063765       14.0199158414  W2        7644            0.0000000000
     22931      7644  TIP3      H1             -6.8896687078       -2.0708763765       14.7973358414  W2        7644            0.0000000000
     22932      7644  TIP3      H2             -7.9264987078       -1.6283463765       13.7868758414  W2        7644            0.0000000000
     22933      7645  TIP3      OH2           -12.8292887078       -2.3956963765       23.8960558414  W2        7645            0.0000000000
     22934      7645  TIP3      H1            -12.8217587078       -2.5317263765       22.9486058414  W2        7645            0.0000000000
     22935      7645  TIP3      H2            -13.7452487078       -2.5128863765       24.1480558414  W2        7645            0.0000000000
     22936      7646  TIP3      OH2            -1.3910787078      -17.3533163765       10.3975758414  W2        7646            0.0000000000
     22937      7646  TIP3      H1             -2.2910087078      -17.2144163765       10.6926358414  W2        7646            0.0000000000
     22938      7646  TIP3      H2             -1.1392387078      -16.5218563765        9.9957458414  W2        7646            0.0000000000
     22939      7647  TIP3      OH2           -13.3252287078       -8.5655963765       12.3712658414  W2        7647            0.0000000000
     22940      7647  TIP3      H1            -13.6170987078       -7.7974263765       11.8803958414  W2        7647            0.0000000000
     22941      7647  TIP3      H2            -13.9997087078       -9.2249763765       12.2084058414  W2        7647            0.0000000000
     22942      7648  TIP3      OH2            -0.2019387078       -2.9870763765        8.7739658414  W2        7648            0.0000000000
     22943      7648  TIP3      H1             -0.1285887078       -2.0480563765        8.9444958414  W2        7648            0.0000000000
     22944      7648  TIP3      H2              0.7035712922       -3.2922163765        8.7176958414  W2        7648            0.0000000000
     22945      7649  TIP3      OH2           -17.2322187078       -6.2026763765       21.1862458414  W2        7649            0.0000000000
     22946      7649  TIP3      H1            -17.7333787078       -6.2307363765       20.3712158414  W2        7649            0.0000000000
     22947      7649  TIP3      H2            -17.2268487078       -7.1083563765       21.4959758414  W2        7649            0.0000000000
     22948      7650  TIP3      OH2           -17.4819487078       -3.4222963765       18.0702658414  W2        7650            0.0000000000
     22949      7650  TIP3      H1            -16.5358887078       -3.5665963765       18.0512158414  W2        7650            0.0000000000
     22950      7650  TIP3      H2            -17.5943187078       -2.6380163765       18.6073858414  W2        7650            0.0000000000
     22951      7651  TIP3      OH2             0.7159012922       -2.7563263765       23.7526358414  W2        7651            0.0000000000
     22952      7651  TIP3      H1              0.6665812922       -3.7115163765       23.7153958414  W2        7651            0.0000000000
     22953      7651  TIP3      H2             -0.1108687078       -2.4887963765       24.1540158414  W2        7651            0.0000000000
     22954      7652  TIP3      OH2            -8.3056987078       -3.1824063765       22.6287758414  W2        7652            0.0000000000
     22955      7652  TIP3      H1             -8.2182387078       -2.3559463765       23.1036858414  W2        7652            0.0000000000
     22956      7652  TIP3      H2             -9.1691887078       -3.5120263765       22.8777058414  W2        7652            0.0000000000
     22957      7653  TIP3      OH2            -7.8911187078        0.5899636235       12.4348358414  W2        7653            0.0000000000
     22958      7653  TIP3      H1             -7.9665187078        0.4686836235       11.4883558414  W2        7653            0.0000000000
     22959      7653  TIP3      H2             -7.8582487078        1.5392336235       12.5532958414  W2        7653            0.0000000000
     22960      7654  TIP3      OH2           -14.2377387078       -0.6213363765       14.2157358414  W2        7654            0.0000000000
     22961      7654  TIP3      H1            -14.0856987078       -0.9692963765       15.0943858414  W2        7654            0.0000000000
     22962      7654  TIP3      H2            -15.0886987078       -0.9776063765       13.9604558414  W2        7654            0.0000000000
     22963      7655  TIP3      OH2            -4.7895187078       -0.2560163765        9.4370758414  W2        7655            0.0000000000
     22964      7655  TIP3      H1             -4.4146787078       -1.0004063765        8.9663358414  W2        7655            0.0000000000
     22965      7655  TIP3      H2             -4.7851487078       -0.5259563765       10.3554058414  W2        7655            0.0000000000
     22966      7656  TIP3      OH2            -5.1207087078       -0.3303063765       12.1862958414  W2        7656            0.0000000000
     22967      7656  TIP3      H1             -6.0557287078       -0.2301163765       12.3649958414  W2        7656            0.0000000000
     22968      7656  TIP3      H2             -4.8405187078       -1.0397063765       12.7646158414  W2        7656            0.0000000000
     22969      7657  TIP3      OH2            -2.1321187078      -11.2630763765       24.2328558414  W2        7657            0.0000000000
     22970      7657  TIP3      H1             -2.5394387078      -10.7825163765       23.5121858414  W2        7657            0.0000000000
     22971      7657  TIP3      H2             -2.0915487078      -12.1684763765       23.9249358414  W2        7657            0.0000000000
     22972      7658  TIP3      OH2           -14.9831687078       -4.8791363765       22.2295258414  W2        7658            0.0000000000
     22973      7658  TIP3      H1            -14.7670387078       -5.2405763765       23.0891058414  W2        7658            0.0000000000
     22974      7658  TIP3      H2            -15.8386987078       -5.2537563765       22.0198758414  W2        7658            0.0000000000
     22975      7659  TIP3      OH2           -12.3643687078      -16.4090863765       18.2249458414  W2        7659            0.0000000000
     22976      7659  TIP3      H1            -13.2259987078      -16.4962663765       17.8172358414  W2        7659            0.0000000000
     22977      7659  TIP3      H2            -12.3867987078      -15.5530763765       18.6527058414  W2        7659            0.0000000000
     22978      7660  TIP3      OH2            -7.7015887078      -16.6870463765       21.5996458414  W2        7660            0.0000000000
     22979      7660  TIP3      H1             -7.2812787078      -17.1023363765       22.3527058414  W2        7660            0.0000000000
     22980      7660  TIP3      H2             -8.6346287078      -16.8657163765       21.7168458414  W2        7660            0.0000000000
     22981      7661  TIP3      OH2            -4.3750987078      -12.9315263765       22.4530958414  W2        7661            0.0000000000
     22982      7661  TIP3      H1             -4.8891487078      -13.0573063765       23.2506958414  W2        7661            0.0000000000
     22983      7661  TIP3      H2             -4.5306287078      -12.0192163765       22.2087158414  W2        7661            0.0000000000
     22984      7662  TIP3      OH2            -3.6126087078       -8.0705263765        8.2143958414  W2        7662            0.0000000000
     22985      7662  TIP3      H1             -3.5705287078       -8.2931363765        7.2843958414  W2        7662            0.0000000000
     22986      7662  TIP3      H2             -2.7633987078       -7.6718163765        8.4043858414  W2        7662            0.0000000000
     22987      7663  TIP3      OH2            -8.0398587078      -14.1947063765        8.8847258414  W2        7663            0.0000000000
     22988      7663  TIP3      H1             -8.2933787078      -14.1755463765        9.8075358414  W2        7663            0.0000000000
     22989      7663  TIP3      H2             -8.2966487078      -15.0661663765        8.5833458414  W2        7663            0.0000000000
     22990      7664  TIP3      OH2           -12.2733587078      -11.4436363765       19.3199658414  W2        7664            0.0000000000
     22991      7664  TIP3      H1            -12.9151487078      -11.4839063765       20.0289758414  W2        7664            0.0000000000
     22992      7664  TIP3      H2            -12.2361587078      -10.5171663765       19.0822658414  W2        7664            0.0000000000
     22993      7665  TIP3      OH2           -12.2764487078      -11.2226263765       14.2319658414  W2        7665            0.0000000000
     22994      7665  TIP3      H1            -13.1691587078      -11.5630163765       14.1733458414  W2        7665            0.0000000000
     22995      7665  TIP3      H2            -11.8257887078      -11.5995363765       13.4762858414  W2        7665            0.0000000000
     22996      7666  TIP3      OH2            -6.7408987078      -10.8065963765       13.0490458414  W2        7666            0.0000000000
     22997      7666  TIP3      H1             -7.1498687078       -9.9917363765       12.7575258414  W2        7666            0.0000000000
     22998      7666  TIP3      H2             -6.0202787078      -10.9465863765       12.4347558414  W2        7666            0.0000000000
     22999      7667  TIP3      OH2            -7.6387387078      -10.6309563765       24.5371158414  W2        7667            0.0000000000
     23000      7667  TIP3      H1             -8.2013587078      -11.3357963765       24.8578958414  W2        7667            0.0000000000
     23001      7667  TIP3      H2             -6.8123987078      -10.7517663765       25.0048758414  W2        7667            0.0000000000
     23002      7668  TIP3      OH2            -5.7361287078      -11.3605563765       15.8630158414  W2        7668            0.0000000000
     23003      7668  TIP3      H1             -5.9316787078      -10.7548763765       15.1480758414  W2        7668            0.0000000000
     23004      7668  TIP3      H2             -5.5548687078      -12.1940363765       15.4286458414  W2        7668            0.0000000000
     23005      7669  TIP3      OH2           -14.5233087078      -11.1232863765       21.1871658414  W2        7669            0.0000000000
     23006      7669  TIP3      H1            -14.5613687078      -10.7231263765       22.0558758414  W2        7669            0.0000000000
     23007      7669  TIP3      H2            -15.0141987078      -11.9400463765       21.2774558414  W2        7669            0.0000000000
     23008      7670  TIP3      OH2           -11.1575687078      -13.7490563765        7.9857658414  W2        7670            0.0000000000
     23009      7670  TIP3      H1            -11.5884987078      -14.1940463765        8.7155058414  W2        7670            0.0000000000
     23010      7670  TIP3      H2            -11.8756987078      -13.3774263765        7.4735158414  W2        7670            0.0000000000
     23011      7671  TIP3      OH2           -17.9152287078      -14.0071063765       15.0376358414  W2        7671            0.0000000000
     23012      7671  TIP3      H1            -17.2844587078      -14.0358963765       15.7570258414  W2        7671            0.0000000000
     23013      7671  TIP3      H2            -17.4657987078      -14.4322363765       14.3072258414  W2        7671            0.0000000000
     23014      7672  TIP3      OH2           -16.6410187078      -13.2609063765       10.4616758414  W2        7672            0.0000000000
     23015      7672  TIP3      H1            -16.1668487078      -12.6699163765        9.8767658414  W2        7672            0.0000000000
     23016      7672  TIP3      H2            -17.3583787078      -12.7306163765       10.8086858414  W2        7672            0.0000000000
     23017      7673  TIP3      OH2            -6.4722087078       -9.7224263765       20.5342558414  W2        7673            0.0000000000
     23018      7673  TIP3      H1             -6.1487287078      -10.3534563765       19.8913058414  W2        7673            0.0000000000
     23019      7673  TIP3      H2             -6.9122787078      -10.2572063765       21.1949958414  W2        7673            0.0000000000
     23020      7674  TIP3      OH2            -9.6949187078      -13.7948763765       15.3183758414  W2        7674            0.0000000000
     23021      7674  TIP3      H1            -10.6058087078      -13.7381963765       15.6069758414  W2        7674            0.0000000000
     23022      7674  TIP3      H2             -9.1896287078      -13.8553263765       16.1290958414  W2        7674            0.0000000000
     23023      7675  TIP3      OH2           -14.8665787078      -12.1662463765       14.1451358414  W2        7675            0.0000000000
     23024      7675  TIP3      H1            -15.7557787078      -12.0666963765       13.8050958414  W2        7675            0.0000000000
     23025      7675  TIP3      H2            -14.5700887078      -13.0079463765       13.7989258414  W2        7675            0.0000000000
     23026      7676  TIP3      OH2           -11.2133987078      -12.1659863765       11.8015958414  W2        7676            0.0000000000
     23027      7676  TIP3      H1            -10.2818487078      -12.0369863765       11.9799058414  W2        7676            0.0000000000
     23028      7676  TIP3      H2            -11.4283687078      -11.4965563765       11.1520658414  W2        7676            0.0000000000
     23029      7677  TIP3      OH2            -5.2897287078      -14.5602463765       18.5825558414  W2        7677            0.0000000000
     23030      7677  TIP3      H1             -5.9665687078      -14.4289363765       19.2465258414  W2        7677            0.0000000000
     23031      7677  TIP3      H2             -5.7752387078      -14.7152963765       17.7723258414  W2        7677            0.0000000000
     23032      7678  TIP3      OH2           -12.5393787078      -10.9717663765        9.3682058414  W2        7678            0.0000000000
     23033      7678  TIP3      H1            -13.0818687078      -11.3513863765        8.6769658414  W2        7678            0.0000000000
     23034      7678  TIP3      H2            -11.7058887078      -10.7772963765        8.9396158414  W2        7678            0.0000000000
     23035      7679  TIP3      OH2            -2.0022187078        1.1112936235       24.8593158414  W2        7679            0.0000000000
     23036      7679  TIP3      H1             -1.8023487078        1.5354836235       24.0248458414  W2        7679            0.0000000000
     23037      7679  TIP3      H2             -1.3468487078        1.4551136235       25.4663558414  W2        7679            0.0000000000
     23038      7680  TIP3      OH2           -14.4042387078       -6.4145763765       24.4673658414  W2        7680            0.0000000000
     23039      7680  TIP3      H1            -13.6719987078       -6.1599863765       25.0288158414  W2        7680            0.0000000000
     23040      7680  TIP3      H2            -15.1843687078       -6.2100363765       24.9829058414  W2        7680            0.0000000000
     23041      7681  TIP3      OH2            -8.3749487078      -11.0075763765       17.2053358414  W2        7681            0.0000000000
     23042      7681  TIP3      H1             -7.8106087078      -11.5539163765       16.6582958414  W2        7681            0.0000000000
     23043      7681  TIP3      H2             -8.5226087078      -11.5293863765       17.9940958414  W2        7681            0.0000000000
     23044      7682  TIP3      OH2           -13.3729787078      -14.8709663765       13.6238158414  W2        7682            0.0000000000
     23045      7682  TIP3      H1            -13.6900287078      -15.7734363765       13.5883558414  W2        7682            0.0000000000
     23046      7682  TIP3      H2            -12.5915687078      -14.8692263765       13.0709758414  W2        7682            0.0000000000
     23047      7683  TIP3      OH2            -9.7483587078      -12.6189663765       19.6193758414  W2        7683            0.0000000000
     23048      7683  TIP3      H1            -10.5838287078      -12.1650163765       19.7296158414  W2        7683            0.0000000000
     23049      7683  TIP3      H2             -9.2242987078      -12.3431163765       20.3713658414  W2        7683            0.0000000000
     23050      7684  TIP3      OH2            -9.2040987078       -6.4061963765       11.3040158414  W2        7684            0.0000000000
     23051      7684  TIP3      H1             -9.9489987078       -6.9136663765       10.9818058414  W2        7684            0.0000000000
     23052      7684  TIP3      H2             -9.3383787078       -6.3573963765       12.2504958414  W2        7684            0.0000000000
     23053      7685  TIP3      OH2            -2.0542087078       -7.2733763765       20.0907758414  W2        7685            0.0000000000
     23054      7685  TIP3      H1             -1.4123287078       -6.8167463765       19.5469958414  W2        7685            0.0000000000
     23055      7685  TIP3      H2             -2.8845187078       -7.1601363765       19.6281858414  W2        7685            0.0000000000
     23056      7686  TIP3      OH2            -5.3064187078      -13.5922063765        9.5032758414  W2        7686            0.0000000000
     23057      7686  TIP3      H1             -6.2449987078      -13.4806463765        9.3521558414  W2        7686            0.0000000000
     23058      7686  TIP3      H2             -5.0092087078      -12.7355163765        9.8098458414  W2        7686            0.0000000000
     23059      7687  TIP3      OH2            -7.6848887078       -6.2218663765       22.5409258414  W2        7687            0.0000000000
     23060      7687  TIP3      H1             -8.0302787078       -6.6036263765       23.3478858414  W2        7687            0.0000000000
     23061      7687  TIP3      H2             -7.8848787078       -5.2885063765       22.6122158414  W2        7687            0.0000000000
     23062      7688  TIP3      OH2            -4.5880687078      -11.7249363765       11.1640158414  W2        7688            0.0000000000
     23063      7688  TIP3      H1             -3.6961687078      -11.8624363765       11.4831358414  W2        7688            0.0000000000
     23064      7688  TIP3      H2             -4.5317087078      -10.9343263765       10.6273658414  W2        7688            0.0000000000
     23065      7689  TIP3      OH2           -14.0792687078       -7.1111963765       17.0738058414  W2        7689            0.0000000000
     23066      7689  TIP3      H1            -13.3345487078       -7.1136263765       16.4724558414  W2        7689            0.0000000000
     23067      7689  TIP3      H2            -14.0016087078       -7.9348163765       17.5553158414  W2        7689            0.0000000000
     23068      7690  TIP3      OH2            -7.0786887078       -4.9477663765       10.3294758414  W2        7690            0.0000000000
     23069      7690  TIP3      H1             -7.3738487078       -4.1209763765       10.7109558414  W2        7690            0.0000000000
     23070      7690  TIP3      H2             -7.7816887078       -5.5670763765       10.5256158414  W2        7690            0.0000000000
     23071      7691  TIP3      OH2           -17.0712987078       -8.6505063765       22.3886558414  W2        7691            0.0000000000
     23072      7691  TIP3      H1            -16.8484387078       -9.0685463765       23.2204058414  W2        7691            0.0000000000
     23073      7691  TIP3      H2            -17.6732887078       -9.2630063765       21.9659358414  W2        7691            0.0000000000
     23074      7692  TIP3      OH2           -10.0548087078       -9.1335163765       24.6016258414  W2        7692            0.0000000000
     23075      7692  TIP3      H1            -10.3507287078       -9.2992163765       23.7065358414  W2        7692            0.0000000000
     23076      7692  TIP3      H2             -9.1232887078       -9.3534863765       24.5910158414  W2        7692            0.0000000000
     23077      7693  TIP3      OH2            -5.4345287078       -3.7603163765       22.4914258414  W2        7693            0.0000000000
     23078      7693  TIP3      H1             -6.3350987078       -3.5770563765       22.2238158414  W2        7693            0.0000000000
     23079      7693  TIP3      H2             -5.4004187078       -3.5013863765       23.4123058414  W2        7693            0.0000000000
     23080      7694  TIP3      OH2             0.2968012922      -11.5155263765       10.8586858414  W2        7694            0.0000000000
     23081      7694  TIP3      H1             -0.2575687078      -11.9117263765       10.1864358414  W2        7694            0.0000000000
     23082      7694  TIP3      H2              0.3971612922      -10.6050063765       10.5810158414  W2        7694            0.0000000000
     23083      7695  TIP3      OH2             0.2600012922       -5.7153563765       23.6958358414  W2        7695            0.0000000000
     23084      7695  TIP3      H1             -0.5911487078       -5.4769763765       23.3284758414  W2        7695            0.0000000000
     23085      7695  TIP3      H2              0.8503412922       -5.7320363765       22.9425458414  W2        7695            0.0000000000
     23086      7696  TIP3      OH2            -1.4080287078       -2.7294863765       11.3238958414  W2        7696            0.0000000000
     23087      7696  TIP3      H1             -1.7809187078       -3.5551063765       11.6329558414  W2        7696            0.0000000000
     23088      7696  TIP3      H2             -1.1306787078       -2.9125463765       10.4262358414  W2        7696            0.0000000000
     23089      7697  TIP3      OH2            -4.2476387078       -7.9215363765       18.3450858414  W2        7697            0.0000000000
     23090      7697  TIP3      H1             -5.1759487078       -8.1533463765       18.3180158414  W2        7697            0.0000000000
     23091      7697  TIP3      H2             -3.7965287078       -8.6985563765       18.0149658414  W2        7697            0.0000000000
     23092      7698  TIP3      OH2           -11.7043287078       -3.5933763765       14.4779558414  W2        7698            0.0000000000
     23093      7698  TIP3      H1            -11.1771087078       -2.8199363765       14.2778358414  W2        7698            0.0000000000
     23094      7698  TIP3      H2            -12.5844787078       -3.3684563765       14.1763558414  W2        7698            0.0000000000
     23095      7699  TIP3      OH2           -15.9495587078       -8.7309663765        9.0651958414  W2        7699            0.0000000000
     23096      7699  TIP3      H1            -15.3335687078       -8.1042463765        9.4446758414  W2        7699            0.0000000000
     23097      7699  TIP3      H2            -16.8112987078       -8.4149863765        9.3368458414  W2        7699            0.0000000000
     23098      7700  TIP3      OH2           -10.2770987078       -5.9303863765       14.0543858414  W2        7700            0.0000000000
     23099      7700  TIP3      H1            -10.5180987078       -5.0049463765       14.0959158414  W2        7700            0.0000000000
     23100      7700  TIP3      H2            -11.0177387078       -6.3892563765       14.4507758414  W2        7700            0.0000000000
     23101      7701  TIP3      OH2            -9.7624387078       -1.7810263765       20.3694958414  W2        7701            0.0000000000
     23102      7701  TIP3      H1             -9.3999687078       -0.9264663765       20.1359358414  W2        7701            0.0000000000
     23103      7701  TIP3      H2             -9.2309187078       -2.0728663765       21.1101258414  W2        7701            0.0000000000
     23104      7702  TIP3      OH2           -11.5940187078       -0.9086263765       13.5996058414  W2        7702            0.0000000000
     23105      7702  TIP3      H1            -12.5439687078       -0.8028863765       13.6509358414  W2        7702            0.0000000000
     23106      7702  TIP3      H2            -11.2422087078       -0.0878863765       13.9443558414  W2        7702            0.0000000000
     23107      7703  TIP3      OH2            -6.2183587078       -5.6819563765       20.0700558414  W2        7703            0.0000000000
     23108      7703  TIP3      H1             -6.6442287078       -5.9097863765       20.8964558414  W2        7703            0.0000000000
     23109      7703  TIP3      H2             -5.6377787078       -6.4207763765       19.8875858414  W2        7703            0.0000000000
     23110      7704  TIP3      OH2            -4.0154687078       -4.7529063765        9.1439558414  W2        7704            0.0000000000
     23111      7704  TIP3      H1             -3.6621587078       -5.1329263765        9.9483058414  W2        7704            0.0000000000
     23112      7704  TIP3      H2             -4.9641187078       -4.8464263765        9.2308858414  W2        7704            0.0000000000
     23113      7705  TIP3      OH2            -3.5599387078       -1.1300063765       22.5395358414  W2        7705            0.0000000000
     23114      7705  TIP3      H1             -4.1616187078       -1.6857163765       22.0441658414  W2        7705            0.0000000000
     23115      7705  TIP3      H2             -3.2785687078       -0.4630263765       21.9132758414  W2        7705            0.0000000000
     23116      7706  TIP3      OH2             0.4879712922       -0.2736563765        9.3449758414  W2        7706            0.0000000000
     23117      7706  TIP3      H1              1.2317612922        0.3123936235        9.2051358414  W2        7706            0.0000000000
     23118      7706  TIP3      H2             -0.2062187078        0.2949236235        9.6782158414  W2        7706            0.0000000000
     23119      7707  TIP3      OH2           -15.4373487078      -13.8972363765       21.9467958414  W2        7707            0.0000000000
     23120      7707  TIP3      H1            -16.3301187078      -13.5586963765       21.8791958414  W2        7707            0.0000000000
     23121      7707  TIP3      H2            -15.5360687078      -14.7526263765       22.3648758414  W2        7707            0.0000000000
     23122      7708  TIP3      OH2            -3.1495387078       -6.0807063765       11.3707458414  W2        7708            0.0000000000
     23123      7708  TIP3      H1             -3.4267787078       -6.8087763765       11.9268558414  W2        7708            0.0000000000
     23124      7708  TIP3      H2             -2.2222387078       -5.9615063765       11.5760058414  W2        7708            0.0000000000
     23125      7709  TIP3      OH2           -15.7861487078       -2.0927963765       20.3817358414  W2        7709            0.0000000000
     23126      7709  TIP3      H1            -15.5691187078       -3.0245563765       20.3507058414  W2        7709            0.0000000000
     23127      7709  TIP3      H2            -15.5397987078       -1.8182963765       21.2650158414  W2        7709            0.0000000000
     23128      7710  TIP3      OH2            -9.9246887078       -3.6412963765        7.5909558414  W2        7710            0.0000000000
     23129      7710  TIP3      H1             -9.6857087078       -4.3894863765        7.0438458414  W2        7710            0.0000000000
     23130      7710  TIP3      H2            -10.1935587078       -4.0291263765        8.4237358414  W2        7710            0.0000000000
     23131      7711  TIP3      OH2           -10.9876287078       -4.0709163765       10.0472158414  W2        7711            0.0000000000
     23132      7711  TIP3      H1            -10.8408287078       -4.5909363765       10.8373058414  W2        7711            0.0000000000
     23133      7711  TIP3      H2            -10.9904587078       -3.1641563765       10.3538058414  W2        7711            0.0000000000
     23134      7712  TIP3      OH2           -14.5345187078       -6.8185863765       10.5577558414  W2        7712            0.0000000000
     23135      7712  TIP3      H1            -15.2205887078       -6.4663363765       11.1247258414  W2        7712            0.0000000000
     23136      7712  TIP3      H2            -14.0117287078       -6.0556263765       10.3111858414  W2        7712            0.0000000000
     23137      7713  TIP3      OH2            -6.7030087078      -14.1562063765       20.8366558414  W2        7713            0.0000000000
     23138      7713  TIP3      H1             -6.0042187078      -14.0823363765       21.4866258414  W2        7713            0.0000000000
     23139      7713  TIP3      H2             -7.0838687078      -15.0207063765       20.9909458414  W2        7713            0.0000000000
     23140      7714  TIP3      OH2            -5.9185187078      -14.5040363765       11.9338858414  W2        7714            0.0000000000
     23141      7714  TIP3      H1             -5.6986887078      -14.0324963765       11.1304258414  W2        7714            0.0000000000
     23142      7714  TIP3      H2             -5.3601187078      -14.1097763765       12.6039458414  W2        7714            0.0000000000
     23143      7715  TIP3      OH2            -8.2499087078       -2.3735563765       10.7966358414  W2        7715            0.0000000000
     23144      7715  TIP3      H1             -9.0662987078       -1.8765863765       10.8490658414  W2        7715            0.0000000000
     23145      7715  TIP3      H2             -7.7202787078       -1.8982063765       10.1565158414  W2        7715            0.0000000000
     23146      7716  TIP3      OH2            -8.7185287078      -12.7761563765       12.7687258414  W2        7716            0.0000000000
     23147      7716  TIP3      H1             -7.9062687078      -12.2718363765       12.8148958414  W2        7716            0.0000000000
     23148      7716  TIP3      H2             -8.9632287078      -12.9211863765       13.6826858414  W2        7716            0.0000000000
     23149      7717  TIP3      OH2            -8.1828887078      -11.7898863765       21.9533858414  W2        7717            0.0000000000
     23150      7717  TIP3      H1             -8.0638587078      -11.2163463765       22.7104258414  W2        7717            0.0000000000
     23151      7717  TIP3      H2             -7.5274287078      -12.4779463765       22.0681658414  W2        7717            0.0000000000
     23152      7718  TIP3      OH2            -7.8348587078      -15.6948563765       13.7068358414  W2        7718            0.0000000000
     23153      7718  TIP3      H1             -8.1815087078      -15.0777963765       14.3512658414  W2        7718            0.0000000000
     23154      7718  TIP3      H2             -7.1761687078      -15.1942863765       13.2253858414  W2        7718            0.0000000000
     23155      7719  TIP3      OH2           -10.9115987078       -1.3298363765       10.7783258414  W2        7719            0.0000000000
     23156      7719  TIP3      H1            -10.7507287078       -0.5300863765       10.2775858414  W2        7719            0.0000000000
     23157      7719  TIP3      H2            -11.1088187078       -1.0232363765       11.6633858414  W2        7719            0.0000000000
     23158      7720  TIP3      OH2           -12.1771587078      -14.6319163765       10.3940858414  W2        7720            0.0000000000
     23159      7720  TIP3      H1            -12.2606787078      -13.7436063765       10.7407258414  W2        7720            0.0000000000
     23160      7720  TIP3      H2            -11.2871287078      -14.8972463765       10.6257658414  W2        7720            0.0000000000
     23161      7721  TIP3      OH2            -1.9783087078      -13.8828563765       22.7883558414  W2        7721            0.0000000000
     23162      7721  TIP3      H1             -2.8947287078      -13.6206863765       22.7007258414  W2        7721            0.0000000000
     23163      7721  TIP3      H2             -1.6428087078      -13.8859563765       21.8918858414  W2        7721            0.0000000000
     23164      7722  TIP3      OH2            -3.3762087078      -10.1327563765       16.8840858414  W2        7722            0.0000000000
     23165      7722  TIP3      H1             -4.1737687078      -10.5477363765       16.5555858414  W2        7722            0.0000000000
     23166      7722  TIP3      H2             -2.9310987078      -10.8233863765       17.3751358414  W2        7722            0.0000000000
     23167      7723  TIP3      OH2           -13.9186287078       -4.2046963765        9.4545358414  W2        7723            0.0000000000
     23168      7723  TIP3      H1            -13.3264787078       -3.5052163765        9.7307758414  W2        7723            0.0000000000
     23169      7723  TIP3      H2            -13.4593287078       -4.6377463765        8.7349958414  W2        7723            0.0000000000
     23170      7724  TIP3      OH2           -15.6027087078      -11.5403963765        8.5704758414  W2        7724            0.0000000000
     23171      7724  TIP3      H1            -15.6474487078      -10.6010863765        8.7491758414  W2        7724            0.0000000000
     23172      7724  TIP3      H2            -16.4903887078      -11.7759063765        8.3006858414  W2        7724            0.0000000000
     23173      7725  TIP3      OH2            -2.2897487078       -0.8765063765       18.5064358414  W2        7725            0.0000000000
     23174      7725  TIP3      H1             -2.4453187078       -0.1980663765       17.8493658414  W2        7725            0.0000000000
     23175      7725  TIP3      H2             -1.3571087078       -0.8045763765       18.7094958414  W2        7725            0.0000000000
     23176      7726  TIP3      OH2           -14.7945087078      -16.7587363765       17.2435758414  W2        7726            0.0000000000
     23177      7726  TIP3      H1            -15.0235287078      -16.6994863765       16.3160758414  W2        7726            0.0000000000
     23178      7726  TIP3      H2            -15.2371687078      -17.5501863765       17.5499858414  W2        7726            0.0000000000
     23179      7727  TIP3      OH2           -15.8641787078       -2.8180263765       13.4041558414  W2        7727            0.0000000000
     23180      7727  TIP3      H1            -16.6963187078       -2.3457563765       13.4312958414  W2        7727            0.0000000000
     23181      7727  TIP3      H2            -15.3183487078       -2.3082663765       12.8054658414  W2        7727            0.0000000000
     23182      7728  TIP3      OH2           -16.5758087078       -0.2056563765       24.7339558414  W2        7728            0.0000000000
     23183      7728  TIP3      H1            -16.0355887078       -0.4222563765       25.4938758414  W2        7728            0.0000000000
     23184      7728  TIP3      H2            -17.0570087078       -1.0110563765       24.5442058414  W2        7728            0.0000000000
     23185      7729  TIP3      OH2           -11.9784687078       -1.2862163765       26.3543758414  W2        7729            0.0000000000
     23186      7729  TIP3      H1            -11.2107487078       -1.7451363765       26.6952958414  W2        7729            0.0000000000
     23187      7729  TIP3      H2            -11.9998487078       -1.5122363765       25.4244958414  W2        7729            0.0000000000
     23188      7730  TIP3      OH2            -7.8865087078       -1.7781563765        7.7295558414  W2        7730            0.0000000000
     23189      7730  TIP3      H1             -8.5304087078       -2.4092963765        8.0509258414  W2        7730            0.0000000000
     23190      7730  TIP3      H2             -7.1246787078       -2.3093563765        7.4979058414  W2        7730            0.0000000000
     23191      7731  TIP3      OH2            -5.4015987078       -2.9061063765       25.0835258414  W2        7731            0.0000000000
     23192      7731  TIP3      H1             -5.7526487078       -3.7628063765       25.3265658414  W2        7731            0.0000000000
     23193      7731  TIP3      H2             -4.6752787078       -2.7634363765       25.6904258414  W2        7731            0.0000000000
     23194      7732  TIP3      OH2            -3.2822187078       -1.9611663765        7.9633558414  W2        7732            0.0000000000
     23195      7732  TIP3      H1             -2.9991787078       -2.7556463765        8.4160458414  W2        7732            0.0000000000
     23196      7732  TIP3      H2             -2.5424287078       -1.7280663765        7.4024658414  W2        7732            0.0000000000
     23197      7733  TIP3      OH2           -16.6688587078       -6.3952463765       25.6883858414  W2        7733            0.0000000000
     23198      7733  TIP3      H1            -16.5248087078       -7.2971763765       25.4020558414  W2        7733            0.0000000000
     23199      7733  TIP3      H2            -17.4411187078       -6.1090363765       25.2006158414  W2        7733            0.0000000000
     23200      7734  TIP3      OH2           -12.3274887078       -6.0516763765        7.8208458414  W2        7734            0.0000000000
     23201      7734  TIP3      H1            -12.2630787078       -6.8457163765        8.3514858414  W2        7734            0.0000000000
     23202      7734  TIP3      H2            -11.6745687078       -6.1703963765        7.1310458414  W2        7734            0.0000000000
     23203      7735  TIP3      OH2           -10.0132487078       -6.4254363765       25.1210258414  W2        7735            0.0000000000
     23204      7735  TIP3      H1            -10.3418687078       -6.1546263765       24.2637658414  W2        7735            0.0000000000
     23205      7735  TIP3      H2             -9.8614287078       -7.3664563765       25.0335258414  W2        7735            0.0000000000
     23206      7736  TIP3      OH2            -6.9751487078       -5.0045063765        7.5566458414  W2        7736            0.0000000000
     23207      7736  TIP3      H1             -7.2437387078       -4.8242963765        8.4575358414  W2        7736            0.0000000000
     23208      7736  TIP3      H2             -7.1815887078       -5.9298863765        7.4252258414  W2        7736            0.0000000000
     23209      7737  TIP3      OH2            -4.2787287078       -6.5097063765       22.5042558414  W2        7737            0.0000000000
     23210      7737  TIP3      H1             -3.5332487078       -5.9213363765       22.3846558414  W2        7737            0.0000000000
     23211      7737  TIP3      H2             -5.0360487078       -5.9277363765       22.5675658414  W2        7737            0.0000000000
     23212      7738  TIP3      OH2           -15.8362087078       -9.1949163765       25.1083158414  W2        7738            0.0000000000
     23213      7738  TIP3      H1            -15.4280887078      -10.0522563765       24.9873758414  W2        7738            0.0000000000
     23214      7738  TIP3      H2            -16.0964487078       -9.1807863765       26.0293458414  W2        7738            0.0000000000
     23215      7739  TIP3      OH2           -11.1781087078       -8.0790563765       10.1266458414  W2        7739            0.0000000000
     23216      7739  TIP3      H1            -11.6379087078       -8.5632263765       10.8124958414  W2        7739            0.0000000000
     23217      7739  TIP3      H2            -10.9232387078       -8.7475163765        9.4906958414  W2        7739            0.0000000000
     23218      7740  TIP3      OH2           -11.8891787078      -10.1863463765       22.4826058414  W2        7740            0.0000000000
     23219      7740  TIP3      H1            -12.5075687078       -9.5116863765       22.7630758414  W2        7740            0.0000000000
     23220      7740  TIP3      H2            -11.5450587078       -9.8649563765       21.6492258414  W2        7740            0.0000000000
     23221      7741  TIP3      OH2           -10.1070687078       -9.8358763765        8.3889658414  W2        7741            0.0000000000
     23222      7741  TIP3      H1            -10.2875687078       -9.9907563765        7.4617958414  W2        7741            0.0000000000
     23223      7741  TIP3      H2             -9.1570187078       -9.7280063765        8.4337558414  W2        7741            0.0000000000
     23224      7742  TIP3      OH2            -6.8693587078       -7.7148163765       25.7600858414  W2        7742            0.0000000000
     23225      7742  TIP3      H1             -5.9162387078       -7.6309063765       25.7326858414  W2        7742            0.0000000000
     23226      7742  TIP3      H2             -7.0298987078       -8.4266363765       26.3795758414  W2        7742            0.0000000000
     23227      7743  TIP3      OH2            -0.7172387078       -7.4814563765        7.8347758414  W2        7743            0.0000000000
     23228      7743  TIP3      H1             -0.9907587078       -7.9059063765        7.0216058414  W2        7743            0.0000000000
     23229      7743  TIP3      H2             -0.6778287078       -6.5500063765        7.6178158414  W2        7743            0.0000000000
     23230      7744  TIP3      OH2           -11.5498087078      -12.8312663765       23.5649158414  W2        7744            0.0000000000
     23231      7744  TIP3      H1            -11.3997187078      -13.5601363765       22.9628858414  W2        7744            0.0000000000
     23232      7744  TIP3      H2            -11.5475687078      -12.0540963765       23.0061358414  W2        7744            0.0000000000
     23233      7745  TIP3      OH2           -11.1372387078      -14.4616863765       21.0576558414  W2        7745            0.0000000000
     23234      7745  TIP3      H1            -10.6014887078      -14.0100163765       20.4055858414  W2        7745            0.0000000000
     23235      7745  TIP3      H2            -11.9892787078      -14.5697063765       20.6350658414  W2        7745            0.0000000000
     23236      7746  TIP3      OH2            -9.5553987078       -9.0220663765       21.2971758414  W2        7746            0.0000000000
     23237      7746  TIP3      H1             -8.8049187078       -9.1783163765       20.7239558414  W2        7746            0.0000000000
     23238      7746  TIP3      H2             -9.8945687078       -8.1704063765       21.0217258414  W2        7746            0.0000000000
     23239      7747  TIP3      OH2            -5.1397787078      -11.2068863765       26.3257058414  W2        7747            0.0000000000
     23240      7747  TIP3      H1             -4.9476487078      -12.1379463765       26.2141558414  W2        7747            0.0000000000
     23241      7747  TIP3      H2             -4.2821487078      -10.7819363765       26.3152458414  W2        7747            0.0000000000
     23242      7748  TIP3      OH2            -3.8230587078       -8.4183663765       24.4029758414  W2        7748            0.0000000000
     23243      7748  TIP3      H1             -4.1045587078       -7.7089063765       23.8253558414  W2        7748            0.0000000000
     23244      7748  TIP3      H2             -2.8806287078       -8.4910663765       24.2520958414  W2        7748            0.0000000000
     23245      7749  TIP3      OH2           -13.0711787078      -11.6329163765       25.4764758414  W2        7749            0.0000000000
     23246      7749  TIP3      H1            -13.8382787078      -12.1654363765       25.2662358414  W2        7749            0.0000000000
     23247      7749  TIP3      H2            -12.3922787078      -11.9428763765       24.8771058414  W2        7749            0.0000000000
     23248      7750  TIP3      OH2           -10.3316887078      -17.0051163765       21.4890158414  W2        7750            0.0000000000
     23249      7750  TIP3      H1            -10.4297287078      -16.0587963765       21.3836358414  W2        7750            0.0000000000
     23250      7750  TIP3      H2            -11.0740687078      -17.3777363765       21.0133658414  W2        7750            0.0000000000
     23251      7751  TIP3      OH2            -9.0676387078      -12.6835763765       25.0528558414  W2        7751            0.0000000000
     23252      7751  TIP3      H1             -9.3030987078      -12.9029063765       25.9543458414  W2        7751            0.0000000000
     23253      7751  TIP3      H2             -9.8509487078      -12.8904563765       24.5431058414  W2        7751            0.0000000000
     23254      7752  TIP3      OH2            -6.3519787078      -13.5562263765       24.1282058414  W2        7752            0.0000000000
     23255      7752  TIP3      H1             -7.2994387078      -13.5242563765       24.2605358414  W2        7752            0.0000000000
     23256      7752  TIP3      H2             -6.0393087078      -14.1815163765       24.7820258414  W2        7752            0.0000000000
     23257      7753  TIP3      OH2            -4.7178287078      -14.9221163765       26.1333958414  W2        7753            0.0000000000
     23258      7753  TIP3      H1             -4.8146487078      -15.8743863765       26.1275858414  W2        7753            0.0000000000
     23259      7753  TIP3      H2             -5.0395187078      -14.6534363765       26.9939458414  W2        7753            0.0000000000
     23260      7754  TIP3      OH2           -14.8908987078      -13.7125363765       25.1809458414  W2        7754            0.0000000000
     23261      7754  TIP3      H1            -14.6791587078      -14.4189263765       24.5706958414  W2        7754            0.0000000000
     23262      7754  TIP3      H2            -15.0021487078      -14.1499363765       26.0250658414  W2        7754            0.0000000000
     23263      7755  TIP3      OH2           -10.1098787078      -17.7113763765       24.1602958414  W2        7755            0.0000000000
     23264      7755  TIP3      H1             -9.3980387078      -18.3511563765       24.1462058414  W2        7755            0.0000000000
     23265      7755  TIP3      H2            -10.2108387078      -17.4445463765       23.2466058414  W2        7755            0.0000000000
     23266      7756  TIP3      OH2            -9.7561287078      -16.0285363765       26.2139258414  W2        7756            0.0000000000
     23267      7756  TIP3      H1             -9.8879087078      -16.5041563765       25.3937758414  W2        7756            0.0000000000
     23268      7756  TIP3      H2            -10.3553887078      -15.2841763765       26.1586358414  W2        7756            0.0000000000
     23269      7757  TIP3      OH2           -10.2098987078        0.8544936235        9.3903258414  W2        7757            0.0000000000
     23270      7757  TIP3      H1             -9.2768287078        1.0123636235        9.5341658414  W2        7757            0.0000000000
     23271      7757  TIP3      H2            -10.4740187078        1.5297936235        8.7654758414  W2        7757            0.0000000000
     23272      7758  TIP3      OH2           -16.6414087078       -4.5091263765        8.8731358414  W2        7758            0.0000000000
     23273      7758  TIP3      H1            -15.7274887078       -4.4302363765        9.1465258414  W2        7758            0.0000000000
     23274      7758  TIP3      H2            -16.6340987078       -5.1961663765        8.2066958414  W2        7758            0.0000000000
     23275      7759  TIP3      OH2           -17.9923487078        0.8837236235       13.9505258414  W2        7759            0.0000000000
     23276      7759  TIP3      H1            -18.6396387078        0.4218936235       13.4176458414  W2        7759            0.0000000000
     23277      7759  TIP3      H2            -17.6378887078        0.2120536235       14.5331458414  W2        7759            0.0000000000
     23278      7760  TIP3      OH2           -17.1224287078       -1.0355763765       15.7551458414  W2        7760            0.0000000000
     23279      7760  TIP3      H1            -17.4567487078       -1.9158463765       15.9271658414  W2        7760            0.0000000000
     23280      7760  TIP3      H2            -16.9001887078       -0.6900763765       16.6197058414  W2        7760            0.0000000000
     23281      7761  TIP3      OH2             0.4260512922       -0.2259363765       18.7356258414  W2        7761            0.0000000000
     23282      7761  TIP3      H1              0.4047212922       -0.0410963765       19.6745658414  W2        7761            0.0000000000
     23283      7761  TIP3      H2              1.1166712922        0.3424636235       18.3947658414  W2        7761            0.0000000000
     23284      7762  TIP3      OH2            -0.0106587078       -0.6588263765       21.6575358414  W2        7762            0.0000000000
     23285      7762  TIP3      H1             -0.4977887078       -1.3944163765       21.2862758414  W2        7762            0.0000000000
     23286      7762  TIP3      H2              0.5386112922       -1.0524363765       22.3354758414  W2        7762            0.0000000000
     23287      7763  TIP3      OH2            -1.5599287078       -4.8690163765       26.2955658414  W2        7763            0.0000000000
     23288      7763  TIP3      H1             -2.4258187078       -4.9740463765       26.6897958414  W2        7763            0.0000000000
     23289      7763  TIP3      H2             -1.1833387078       -4.1106863765       26.7420358414  W2        7763            0.0000000000
     23290      7764  TIP3      OH2            -0.2589587078       -6.6126463765       11.8098158414  W2        7764            0.0000000000
     23291      7764  TIP3      H1              0.5911812922       -6.1915563765       11.9369758414  W2        7764            0.0000000000
     23292      7764  TIP3      H2             -0.2534487078       -7.3526363765       12.4169558414  W2        7764            0.0000000000
     23293      7765  TIP3      OH2             0.1356012922       -8.5589063765       13.6333858414  W2        7765            0.0000000000
     23294      7765  TIP3      H1             -0.5909387078       -9.0386463765       14.0311458414  W2        7765            0.0000000000
     23295      7765  TIP3      H2              0.7169312922       -8.3534363765       14.3655458414  W2        7765            0.0000000000
     23296      7766  TIP3      OH2            -0.1052787078       -5.7741563765       18.5811458414  W2        7766            0.0000000000
     23297      7766  TIP3      H1              0.7281412922       -6.1521563765       18.3005058414  W2        7766            0.0000000000
     23298      7766  TIP3      H2              0.0067512922       -4.8310363765       18.4620558414  W2        7766            0.0000000000
     23299      7767  TIP3      OH2            -1.6190487078       -2.8964063765       20.8879858414  W2        7767            0.0000000000
     23300      7767  TIP3      H1             -2.2665187078       -2.5712563765       21.5135058414  W2        7767            0.0000000000
     23301      7767  TIP3      H2             -2.1366487078       -3.3366363765       20.2138158414  W2        7767            0.0000000000
     23302      7768  TIP3      OH2             0.4039112922       -8.6580563765       10.0245158414  W2        7768            0.0000000000
     23303      7768  TIP3      H1             -0.1179787078       -8.3016463765        9.3056058414  W2        7768            0.0000000000
     23304      7768  TIP3      H2              0.3708312922       -7.9832763765       10.7026058414  W2        7768            0.0000000000
     23305      7769  TIP3      OH2            -1.2471887078      -11.4184963765        8.5752258414  W2        7769            0.0000000000
     23306      7769  TIP3      H1             -1.1507487078      -10.7517963765        7.8951958414  W2        7769            0.0000000000
     23307      7769  TIP3      H2             -1.3872287078      -12.2338663765        8.0937758414  W2        7769            0.0000000000
     23308      7770  TIP3      OH2            -2.0777187078      -10.0382563765       14.1962558414  W2        7770            0.0000000000
     23309      7770  TIP3      H1             -2.2278387078      -10.9833963765       14.1760358414  W2        7770            0.0000000000
     23310      7770  TIP3      H2             -2.4312687078       -9.7571163765       15.0401658414  W2        7770            0.0000000000
     23311      7771  TIP3      OH2           -17.0424787078       -7.9600363765       18.2066358414  W2        7771            0.0000000000
     23312      7771  TIP3      H1            -16.8581887078       -8.0418663765       17.2709258414  W2        7771            0.0000000000
     23313      7771  TIP3      H2            -16.1931887078       -8.0843363765       18.6302758414  W2        7771            0.0000000000
     23314      7772  TIP3      OH2            -1.2214287078       -8.0679263765       23.8350858414  W2        7772            0.0000000000
     23315      7772  TIP3      H1             -0.6386987078       -8.8026963765       24.0268058414  W2        7772            0.0000000000
     23316      7772  TIP3      H2             -0.6574987078       -7.2958963765       23.8816658414  W2        7772            0.0000000000
     23317      7773  TIP3      OH2             0.2752812922      -10.1653463765       24.5196258414  W2        7773            0.0000000000
     23318      7773  TIP3      H1             -0.5880487078      -10.5441363765       24.3540958414  W2        7773            0.0000000000
     23319      7773  TIP3      H2              0.8796512922      -10.9038663765       24.4452058414  W2        7773            0.0000000000
     23320      7774  TIP3      OH2            -1.9998087078      -14.0105163765        7.6927758414  W2        7774            0.0000000000
     23321      7774  TIP3      H1             -1.3892287078      -14.3818363765        8.3295958414  W2        7774            0.0000000000
     23322      7774  TIP3      H2             -2.8366587078      -14.4318263765        7.8887758414  W2        7774            0.0000000000
     23323      7775  TIP3      OH2            -2.3672387078      -12.4556763765       12.6587658414  W2        7775            0.0000000000
     23324      7775  TIP3      H1             -2.0875287078      -13.3626363765       12.7829358414  W2        7775            0.0000000000
     23325      7775  TIP3      H2             -1.6080687078      -12.0215263765       12.2696858414  W2        7775            0.0000000000
     23326      7776  TIP3      OH2            -1.7554087078      -11.8739363765       18.0946558414  W2        7776            0.0000000000
     23327      7776  TIP3      H1             -0.8226087078      -11.6619463765       18.0602558414  W2        7776            0.0000000000
     23328      7776  TIP3      H2             -1.9906587078      -11.7727263765       19.0169558414  W2        7776            0.0000000000
     23329      7777  TIP3      OH2            -1.7262187078      -11.1374063765       20.8705958414  W2        7777            0.0000000000
     23330      7777  TIP3      H1             -2.5690887078      -10.8693663765       21.2365758414  W2        7777            0.0000000000
     23331      7777  TIP3      H2             -1.2837887078      -10.3152163765       20.6597058414  W2        7777            0.0000000000
     23332      7778  TIP3      OH2           -17.4449987078      -12.6895363765       24.3475158414  W2        7778            0.0000000000
     23333      7778  TIP3      H1            -16.5255087078      -12.8117063765       24.5838258414  W2        7778            0.0000000000
     23334      7778  TIP3      H2            -17.8945487078      -13.4395663765       24.7368658414  W2        7778            0.0000000000
     23335      7779  TIP3      OH2             0.5569412922      -17.1573863765       26.2240958414  W2        7779            0.0000000000
     23336      7779  TIP3      H1              0.9066412922      -17.8110363765       25.6185658414  W2        7779            0.0000000000
     23337      7779  TIP3      H2              0.7038912922      -16.3199763765       25.7843558414  W2        7779            0.0000000000
     23338      7780  TIP3      OH2            -1.7537587078      -15.1927463765       12.7069658414  W2        7780            0.0000000000
     23339      7780  TIP3      H1             -1.5712587078      -15.6415963765       13.5324658414  W2        7780            0.0000000000
     23340      7780  TIP3      H2             -2.3534687078      -15.7773063765       12.2434258414  W2        7780            0.0000000000
     23341      7781  TIP3      OH2           -16.2237487078      -14.3773763765       17.2388058414  W2        7781            0.0000000000
     23342      7781  TIP3      H1            -15.7785887078      -15.1691263765       17.5407758414  W2        7781            0.0000000000
     23343      7781  TIP3      H2            -15.7574487078      -13.6608563765       17.6693658414  W2        7781            0.0000000000
     23344      7782  TIP3      OH2           -17.9197187078      -11.3780763765       18.3078258414  W2        7782            0.0000000000
     23345      7782  TIP3      H1            -17.4277387078      -11.5990263765       17.5170258414  W2        7782            0.0000000000
     23346      7782  TIP3      H2            -17.5576287078      -10.5377363765       18.5887758414  W2        7782            0.0000000000
     23347      7783  TIP3      OH2             0.0766612922      -15.0479263765       24.5732258414  W2        7783            0.0000000000
     23348      7783  TIP3      H1             -0.8407687078      -14.7772163765       24.5375758414  W2        7783            0.0000000000
     23349      7783  TIP3      H2              0.1996012922      -15.5830863765       23.7891958414  W2        7783            0.0000000000
     23350      7784  TIP3      OH2             0.1128612922      -15.1249363765        9.2349958414  W2        7784            0.0000000000
     23351      7784  TIP3      H1              0.5251212922      -15.8463663765        8.7597958414  W2        7784            0.0000000000
     23352      7784  TIP3      H2              0.7945112922      -14.4554763765        9.2934258414  W2        7784            0.0000000000
     23353      7785  TIP3      OH2           -17.6060687078      -15.1201663765       12.3620658414  W2        7785            0.0000000000
     23354      7785  TIP3      H1            -18.5312287078      -14.9115063765       12.2326158414  W2        7785            0.0000000000
     23355      7785  TIP3      H2            -17.1520787078      -14.6360863765       11.6722958414  W2        7785            0.0000000000
     23356      7786  TIP3      OH2            -2.8353487078       -0.1359963765       14.3078058414  W2        7786            0.0000000000
     23357      7786  TIP3      H1             -2.1830587078       -0.4837863765       13.6997158414  W2        7786            0.0000000000
     23358      7786  TIP3      H2             -2.3249687078        0.3523236235       14.9537758414  W2        7786            0.0000000000
     23359      7787  TIP3      OH2           -17.6425287078      -16.3822663765       20.7063158414  W2        7787            0.0000000000
     23360      7787  TIP3      H1            -18.3074787078      -16.6282363765       21.3494058414  W2        7787            0.0000000000
     23361      7787  TIP3      H2            -18.0853987078      -15.7602263765       20.1291158414  W2        7787            0.0000000000
     23362      7788  TIP3      OH2           -15.4505987078       -3.2068563765       24.8508958414  W2        7788            0.0000000000
     23363      7788  TIP3      H1            -16.2713487078       -3.0322063765       24.3903658414  W2        7788            0.0000000000
     23364      7788  TIP3      H2            -15.7028187078       -3.2803863765       25.7713358414  W2        7788            0.0000000000
     23365      7789  TIP3      OH2           -12.4963087078       -2.2327363765       21.1092958414  W2        7789            0.0000000000
     23366      7789  TIP3      H1            -12.9211987078       -1.4228863765       20.8267558414  W2        7789            0.0000000000
     23367      7789  TIP3      H2            -11.5920287078       -2.1473263765       20.8072758414  W2        7789            0.0000000000
     23368      7790  TIP3      OH2            -8.1851687078       -0.8337363765       24.0686658414  W2        7790            0.0000000000
     23369      7790  TIP3      H1             -8.0004187078       -1.1671263765       24.9466958414  W2        7790            0.0000000000
     23370      7790  TIP3      H2             -7.3387187078       -0.5238763765       23.7465858414  W2        7790            0.0000000000
     23371      7791  TIP3      OH2            -5.8401287078        0.4521536235       23.3128058414  W2        7791            0.0000000000
     23372      7791  TIP3      H1             -5.1632387078       -0.1806163765       23.0727258414  W2        7791            0.0000000000
     23373      7791  TIP3      H2             -5.5182487078        0.8532036235       24.1201358414  W2        7791            0.0000000000
     23374      7792  TIP3      OH2            -0.9227487078      -16.9582963765       22.3923058414  W2        7792            0.0000000000
     23375      7792  TIP3      H1             -1.7353987078      -16.6332663765       22.0047758414  W2        7792            0.0000000000
     23376      7792  TIP3      H2             -0.6898987078      -17.7184463765       21.8592158414  W2        7792            0.0000000000
     23377      7793  TIP3      OH2           -15.0946387078        1.0236536235       21.1568258414  W2        7793            0.0000000000
     23378      7793  TIP3      H1            -15.8149987078        1.4637536235       20.7055958414  W2        7793            0.0000000000
     23379      7793  TIP3      H2            -15.4602387078        0.7731236235       22.0052258414  W2        7793            0.0000000000
     23380      7794  TIP3      OH2           -12.6273787078        0.6240436235       20.1865458414  W2        7794            0.0000000000
     23381      7794  TIP3      H1            -13.4921587078        0.6958936235       20.5905558414  W2        7794            0.0000000000
     23382      7794  TIP3      H2            -12.6824787078        1.1707736235       19.4027958414  W2        7794            0.0000000000
     23383      7795  TIP3      OH2            -7.9168187078        0.5119336235       19.3621458414  W2        7795            0.0000000000
     23384      7795  TIP3      H1             -8.3734187078        1.0409036235       18.7079858414  W2        7795            0.0000000000
     23385      7795  TIP3      H2             -7.7540187078        1.1150736235       20.0873758414  W2        7795            0.0000000000
     23386      7796  TIP3      OH2            -5.5891887078       -0.6101063765       20.3071758414  W2        7796            0.0000000000
     23387      7796  TIP3      H1             -6.4938187078       -0.4450863765       20.0413858414  W2        7796            0.0000000000
     23388      7796  TIP3      H2             -5.1603287078        0.2431136235       20.2415158414  W2        7796            0.0000000000
     23389      7797  TIP3      OH2            -2.9849987078        0.9598036235       20.6019558414  W2        7797            0.0000000000
     23390      7797  TIP3      H1             -3.1667987078        1.8756936235       20.3914458414  W2        7797            0.0000000000
     23391      7797  TIP3      H2             -2.8082187078        0.5495136235       19.7554158414  W2        7797            0.0000000000
     23392      7798  TIP3      OH2           -15.6798287078       -0.3530963765       18.0670058414  W2        7798            0.0000000000
     23393      7798  TIP3      H1            -15.6982287078       -0.7785863765       18.9242358414  W2        7798            0.0000000000
     23394      7798  TIP3      H2            -14.8750387078       -0.6715963765       17.6582258414  W2        7798            0.0000000000
     23395      7799  TIP3      OH2           -13.5385187078       -1.6432263765       16.7219958414  W2        7799            0.0000000000
     23396      7799  TIP3      H1            -13.7574487078       -2.5594863765       16.8915958414  W2        7799            0.0000000000
     23397      7799  TIP3      H2            -12.7142987078       -1.5031863765       17.1881358414  W2        7799            0.0000000000
     23398      7800  TIP3      OH2           -11.0012687078       -1.1732963765       17.5707958414  W2        7800            0.0000000000
     23399      7800  TIP3      H1            -10.7886987078       -2.0613963765       17.2838858414  W2        7800            0.0000000000
     23400      7800  TIP3      H2            -10.9367587078       -1.2075263765       18.5251958414  W2        7800            0.0000000000
     23401      7801  TIP3      OH2            -7.4928987078      -15.5092363765       16.7151258414  W2        7801            0.0000000000
     23402      7801  TIP3      H1             -8.1672187078      -16.1386763765       16.9707058414  W2        7801            0.0000000000
     23403      7801  TIP3      H2             -6.9289787078      -15.9933463765       16.1119158414  W2        7801            0.0000000000
     23404      7802  TIP3      OH2            -2.3501787078      -17.4018363765       16.8278358414  W2        7802            0.0000000000
     23405      7802  TIP3      H1             -1.7464187078      -16.8542963765       16.3259358414  W2        7802            0.0000000000
     23406      7802  TIP3      H2             -3.2199787078      -17.0827963765       16.5872458414  W2        7802            0.0000000000
     23407      7803  TIP3      OH2            -0.6231387078      -16.2629663765       15.1609258414  W2        7803            0.0000000000
     23408      7803  TIP3      H1             -0.0113887078      -16.7773963765       14.6342858414  W2        7803            0.0000000000
     23409      7803  TIP3      H2             -0.2407987078      -15.3857563765       15.1843658414  W2        7803            0.0000000000
     23410      7804  TIP3      OH2           -15.1661487078      -16.8752063765       14.5371158414  W2        7804            0.0000000000
     23411      7804  TIP3      H1            -15.9431687078      -17.1097163765       14.0297058414  W2        7804            0.0000000000
     23412      7804  TIP3      H2            -14.6357887078      -17.6719963765       14.5459158414  W2        7804            0.0000000000
     23413      7805  TIP3      OH2           -16.3298087078      -17.0773963765       10.3407258414  W2        7805            0.0000000000
     23414      7805  TIP3      H1            -15.8907387078      -16.4663463765        9.7490758414  W2        7805            0.0000000000
     23415      7805  TIP3      H2            -16.9635687078      -16.5389863765       10.8147258414  W2        7805            0.0000000000
     23416      7806  TIP3      OH2           -10.5868887078      -16.9484963765       14.3504258414  W2        7806            0.0000000000
     23417      7806  TIP3      H1             -9.7125487078      -16.5600663765       14.3208558414  W2        7806            0.0000000000
     23418      7806  TIP3      H2            -10.7228087078      -17.1637163765       15.2731458414  W2        7806            0.0000000000
     23419      7807  TIP3      OH2            -5.0300487078      -16.9185163765       15.9995958414  W2        7807            0.0000000000
     23420      7807  TIP3      H1             -4.9538887078      -16.8233563765       15.0501958414  W2        7807            0.0000000000
     23421      7807  TIP3      H2             -5.3051287078      -17.8262263765       16.1285058414  W2        7807            0.0000000000
     23422      7808  TIP3      OH2            -3.6767887078      -16.8927363765       11.6920958414  W2        7808            0.0000000000
     23423      7808  TIP3      H1             -4.3796787078      -16.2778163765       11.4822358414  W2        7808            0.0000000000
     23424      7808  TIP3      H2             -4.1216487078      -17.7300663765       11.8231858414  W2        7808            0.0000000000
     23425      7809  TIP3      OH2           -16.4288587078       -1.1291763765       11.2382358414  W2        7809            0.0000000000
     23426      7809  TIP3      H1            -17.1138687078       -1.1672863765       10.5707458414  W2        7809            0.0000000000
     23427      7809  TIP3      H2            -16.4251387078       -0.2164163765       11.5264458414  W2        7809            0.0000000000
     23428      7810  TIP3      OH2           -14.4688987078      -15.1612463765        8.7831358414  W2        7810            0.0000000000
     23429      7810  TIP3      H1            -13.9775587078      -15.7910063765        8.2556858414  W2        7810            0.0000000000
     23430      7810  TIP3      H2            -13.8452687078      -14.8653063765        9.4462558414  W2        7810            0.0000000000
     23431      7811  TIP3      OH2            -9.4428887078      -14.8680963765       11.2401858414  W2        7811            0.0000000000
     23432      7811  TIP3      H1             -9.2647587078      -15.5147763765       11.9230458414  W2        7811            0.0000000000
     23433      7811  TIP3      H2             -9.4962687078      -14.0343263765       11.7072958414  W2        7811            0.0000000000
     23434      7812  TIP3      OH2            -7.5645087078        0.0803136235        9.6358558414  W2        7812            0.0000000000
     23435      7812  TIP3      H1             -6.6984887078        0.4470536235        9.4576758414  W2        7812            0.0000000000
     23436      7812  TIP3      H2             -7.8112287078       -0.3588863765        8.8219358414  W2        7812            0.0000000000
     23437      7813  TIP3      OH2            -0.8555487078       -0.3566563765       12.3149658414  W2        7813            0.0000000000
     23438      7813  TIP3      H1             -1.0498387078       -1.1044463765       11.7499258414  W2        7813            0.0000000000
     23439      7813  TIP3      H2             -0.8945387078        0.4013536235       11.7317558414  W2        7813            0.0000000000
     23440      7814  TIP3      OH2           -15.2083487078      -16.3610163765       24.0547358414  W2        7814            0.0000000000
     23441      7814  TIP3      H1            -15.5745287078      -17.1267563765       24.4972058414  W2        7814            0.0000000000
     23442      7814  TIP3      H2            -14.2954987078      -16.3319963765       24.3412458414  W2        7814            0.0000000000
     23443      7815  TIP3      OH2           -13.2352687078      -17.0105763765       25.5904458414  W2        7815            0.0000000000
     23444      7815  TIP3      H1            -12.3369087078      -17.2845563765       25.4057858414  W2        7815            0.0000000000
     23445      7815  TIP3      H2            -13.6219587078      -17.7529763765       26.0547058414  W2        7815            0.0000000000
     23446      7816  TIP3      OH2           -14.6107387078       -0.2090963765        8.2634458414  W2        7816            0.0000000000
     23447      7816  TIP3      H1            -14.8782787078        0.0771936235        9.1367558414  W2        7816            0.0000000000
     23448      7816  TIP3      H2            -13.8394787078       -0.7551763765        8.4156958414  W2        7816            0.0000000000
     23449      7817  TIP3      OH2            -4.8140387078      -17.6780463765       25.7727258414  W2        7817            0.0000000000
     23450      7817  TIP3      H1             -4.7373187078      -18.1039763765       26.6264958414  W2        7817            0.0000000000
     23451      7817  TIP3      H2             -3.9203787078      -17.6645763765       25.4300758414  W2        7817            0.0000000000
     23452      7818  TIP3      OH2            -1.6379287078       -1.6054163765       24.4651458414  W2        7818            0.0000000000
     23453      7818  TIP3      H1             -2.4197387078       -1.7916163765       23.9452058414  W2        7818            0.0000000000
     23454      7818  TIP3      H2             -1.7099387078       -0.6759863765       24.6823958414  W2        7818            0.0000000000
     23455      7819  TIP3      OH2            12.7681112922       -7.7189763765       14.4958658414  W2        7819            0.0000000000
     23456      7819  TIP3      H1             12.8572212922       -6.7751563765       14.3635758414  W2        7819            0.0000000000
     23457      7819  TIP3      H2             12.1298712922       -7.9943363765       13.8378058414  W2        7819            0.0000000000
     23458      7820  TIP3      OH2            11.7012412922       -8.4639063765       17.9146858414  W2        7820            0.0000000000
     23459      7820  TIP3      H1             11.6629912922       -9.1102763765       18.6196458414  W2        7820            0.0000000000
     23460      7820  TIP3      H2             11.3788912922       -8.9304663765       17.1435558414  W2        7820            0.0000000000
     23461      7821  TIP3      OH2             4.0697412922       -8.8496963765       19.5076758414  W2        7821            0.0000000000
     23462      7821  TIP3      H1              4.1109512922       -9.4753663765       20.2309158414  W2        7821            0.0000000000
     23463      7821  TIP3      H2              4.7725112922       -8.2258363765       19.6897158414  W2        7821            0.0000000000
     23464      7822  TIP3      OH2            15.4072612922       -5.5248663765       16.2161958414  W2        7822            0.0000000000
     23465      7822  TIP3      H1             14.9665312922       -6.2452663765       16.6667558414  W2        7822            0.0000000000
     23466      7822  TIP3      H2             15.3942312922       -4.8041463765       16.8459658414  W2        7822            0.0000000000
     23467      7823  TIP3      OH2             4.9930512922       -4.3998063765       18.0425858414  W2        7823            0.0000000000
     23468      7823  TIP3      H1              4.6235712922       -5.2017563765       17.6730158414  W2        7823            0.0000000000
     23469      7823  TIP3      H2              5.9341612922       -4.5683163765       18.0889258414  W2        7823            0.0000000000
     23470      7824  TIP3      OH2             1.6031012922      -10.7395463765       13.4354658414  W2        7824            0.0000000000
     23471      7824  TIP3      H1              1.1554412922       -9.8936763765       13.4171158414  W2        7824            0.0000000000
     23472      7824  TIP3      H2              1.0422212922      -11.3191263765       12.9199758414  W2        7824            0.0000000000
     23473      7825  TIP3      OH2             2.3137112922       -8.5775863765       15.5612658414  W2        7825            0.0000000000
     23474      7825  TIP3      H1              2.5270612922       -9.3474263765       16.0885658414  W2        7825            0.0000000000
     23475      7825  TIP3      H2              3.0514712922       -8.4879163765       14.9580258414  W2        7825            0.0000000000
     23476      7826  TIP3      OH2            12.5188112922       -0.4206963765       16.4282358414  W2        7826            0.0000000000
     23477      7826  TIP3      H1             13.1384512922       -1.0972263765       16.1551558414  W2        7826            0.0000000000
     23478      7826  TIP3      H2             12.3105512922       -0.6386163765       17.3367258414  W2        7826            0.0000000000
     23479      7827  TIP3      OH2            10.0906812922       -6.0317663765       18.3207858414  W2        7827            0.0000000000
     23480      7827  TIP3      H1             10.3944712922       -6.7176263765       17.7261958414  W2        7827            0.0000000000
     23481      7827  TIP3      H2             10.8120812922       -5.9128963765       18.9385858414  W2        7827            0.0000000000
     23482      7828  TIP3      OH2            18.7536612922      -14.4302363765       19.1814058414  W2        7828            0.0000000000
     23483      7828  TIP3      H1             18.8028812922      -13.8201163765       19.9173158414  W2        7828            0.0000000000
     23484      7828  TIP3      H2             19.1791712922      -13.9691463765       18.4585158414  W2        7828            0.0000000000
     23485      7829  TIP3      OH2            13.2313812922      -11.6375263765       18.6482658414  W2        7829            0.0000000000
     23486      7829  TIP3      H1             13.3739712922      -12.5838263765       18.6684258414  W2        7829            0.0000000000
     23487      7829  TIP3      H2             13.1252812922      -11.4305463765       17.7197558414  W2        7829            0.0000000000
     23488      7830  TIP3      OH2             6.3862112922      -13.5358863765       15.9207458414  W2        7830            0.0000000000
     23489      7830  TIP3      H1              6.4293212922      -12.6760363765       15.5023758414  W2        7830            0.0000000000
     23490      7830  TIP3      H2              5.9286212922      -14.0884163765       15.2870658414  W2        7830            0.0000000000
     23491      7831  TIP3      OH2            14.1084812922      -13.4053263765       14.3215758414  W2        7831            0.0000000000
     23492      7831  TIP3      H1             14.7549112922      -13.7340063765       14.9463358414  W2        7831            0.0000000000
     23493      7831  TIP3      H2             14.6184212922      -12.8874263765       13.6987158414  W2        7831            0.0000000000
     23494      7832  TIP3      OH2             3.0063612922      -11.1393063765       16.6828858414  W2        7832            0.0000000000
     23495      7832  TIP3      H1              3.6600212922      -11.6891363765       17.1148958414  W2        7832            0.0000000000
     23496      7832  TIP3      H2              3.0302912922      -11.4134063765       15.7660858414  W2        7832            0.0000000000
     23497      7833  TIP3      OH2             8.1628112922       -9.5891763765       15.8980358414  W2        7833            0.0000000000
     23498      7833  TIP3      H1              8.7789112922      -10.1156363765       16.4074358414  W2        7833            0.0000000000
     23499      7833  TIP3      H2              7.5766912922      -10.2293063765       15.4943958414  W2        7833            0.0000000000
     23500      7834  TIP3      OH2            19.1451212922      -12.9523163765       21.4173858414  W2        7834            0.0000000000
     23501      7834  TIP3      H1             18.4565812922      -12.2942463765       21.3220458414  W2        7834            0.0000000000
     23502      7834  TIP3      H2             19.1605812922      -13.1495263765       22.3539258414  W2        7834            0.0000000000
     23503      7835  TIP3      OH2             5.1964012922      -14.6180463765       19.9948258414  W2        7835            0.0000000000
     23504      7835  TIP3      H1              4.9775712922      -14.0879863765       19.2284258414  W2        7835            0.0000000000
     23505      7835  TIP3      H2              4.5284912922      -14.3914963765       20.6419658414  W2        7835            0.0000000000
     23506      7836  TIP3      OH2            12.5653812922       -5.1179363765       13.5387358414  W2        7836            0.0000000000
     23507      7836  TIP3      H1             12.2698912922       -5.4407063765       12.6874258414  W2        7836            0.0000000000
     23508      7836  TIP3      H2             12.2411612922       -4.2182663765       13.5799958414  W2        7836            0.0000000000
     23509      7837  TIP3      OH2             7.7655412922       -6.9424763765       20.2821958414  W2        7837            0.0000000000
     23510      7837  TIP3      H1              7.0254512922       -6.3443263765       20.3857158414  W2        7837            0.0000000000
     23511      7837  TIP3      H2              8.4794912922       -6.3885163765       19.9665558414  W2        7837            0.0000000000
     23512      7838  TIP3      OH2            15.8723212922      -14.1143963765       16.3021658414  W2        7838            0.0000000000
     23513      7838  TIP3      H1             15.6571212922      -14.8800563765       16.8347658414  W2        7838            0.0000000000
     23514      7838  TIP3      H2             16.5280612922      -13.6419363765       16.8150158414  W2        7838            0.0000000000
     23515      7839  TIP3      OH2             4.7901312922      -12.7258663765       17.9470458414  W2        7839            0.0000000000
     23516      7839  TIP3      H1              5.4037612922      -12.0931063765       18.3202858414  W2        7839            0.0000000000
     23517      7839  TIP3      H2              5.3022012922      -13.1983663765       17.2907358414  W2        7839            0.0000000000
     23518      7840  TIP3      OH2             6.1729712922       -4.9781763765       21.0693458414  W2        7840            0.0000000000
     23519      7840  TIP3      H1              6.1677312922       -4.0988263765       20.6912758414  W2        7840            0.0000000000
     23520      7840  TIP3      H2              5.3193812922       -5.0617663765       21.4943358414  W2        7840            0.0000000000
     23521      7841  TIP3      OH2             2.2940612922       -5.3073863765       11.8512758414  W2        7841            0.0000000000
     23522      7841  TIP3      H1              2.0221512922       -5.0782863765       10.9625658414  W2        7841            0.0000000000
     23523      7841  TIP3      H2              2.3396312922       -4.4695063765       12.3118058414  W2        7841            0.0000000000
     23524      7842  TIP3      OH2            15.9190312922       -3.6857963765       18.5641258414  W2        7842            0.0000000000
     23525      7842  TIP3      H1             14.9774012922       -3.6274063765       18.7258158414  W2        7842            0.0000000000
     23526      7842  TIP3      H2             16.1956412922       -2.7797463765       18.4270958414  W2        7842            0.0000000000
     23527      7843  TIP3      OH2            16.2197312922      -15.3992663765       19.9815158414  W2        7843            0.0000000000
     23528      7843  TIP3      H1             15.4836512922      -14.7885563765       19.9436458414  W2        7843            0.0000000000
     23529      7843  TIP3      H2             16.9031312922      -14.9843663765       19.4551558414  W2        7843            0.0000000000
     23530      7844  TIP3      OH2             9.2228712922      -17.3125363765       17.4473158414  W2        7844            0.0000000000
     23531      7844  TIP3      H1              9.1052912922      -18.2609363765       17.3931458414  W2        7844            0.0000000000
     23532      7844  TIP3      H2              8.3678812922      -16.9799263765       17.7204258414  W2        7844            0.0000000000
     23533      7845  TIP3      OH2            14.1711512922       -1.9044463765       15.1892858414  W2        7845            0.0000000000
     23534      7845  TIP3      H1             14.5963812922       -2.6116563765       14.7042458414  W2        7845            0.0000000000
     23535      7845  TIP3      H2             14.4881512922       -1.1031763765       14.7725058414  W2        7845            0.0000000000
     23536      7846  TIP3      OH2            15.3308012922       -4.0035963765       13.6979458414  W2        7846            0.0000000000
     23537      7846  TIP3      H1             15.0732812922       -4.6935863765       13.0865358414  W2        7846            0.0000000000
     23538      7846  TIP3      H2             15.4018812922       -4.4464763765       14.5435358414  W2        7846            0.0000000000
     23539      7847  TIP3      OH2            17.0168212922       -5.4369263765       22.1752958414  W2        7847            0.0000000000
     23540      7847  TIP3      H1             17.1564512922       -6.0286763765       21.4359958414  W2        7847            0.0000000000
     23541      7847  TIP3      H2             17.1841012922       -4.5643363765       21.8191758414  W2        7847            0.0000000000
     23542      7848  TIP3      OH2            11.4893612922       -8.4749763765       11.9478958414  W2        7848            0.0000000000
     23543      7848  TIP3      H1             10.7779112922       -7.9400063765       11.5959458414  W2        7848            0.0000000000
     23544      7848  TIP3      H2             12.1803212922       -8.4197663765       11.2877858414  W2        7848            0.0000000000
     23545      7849  TIP3      OH2            11.5432812922      -10.0175463765        8.9863958414  W2        7849            0.0000000000
     23546      7849  TIP3      H1             12.2442712922       -9.9948563765        9.6377958414  W2        7849            0.0000000000
     23547      7849  TIP3      H2             11.8455712922      -10.6455763765        8.3303258414  W2        7849            0.0000000000
     23548      7850  TIP3      OH2            18.8587512922       -9.0971263765       20.2413358414  W2        7850            0.0000000000
     23549      7850  TIP3      H1             18.2061612922       -8.4025663765       20.3304258414  W2        7850            0.0000000000
     23550      7850  TIP3      H2             19.3237812922       -8.8870363765       19.4314958414  W2        7850            0.0000000000
     23551      7851  TIP3      OH2            14.8951312922       -8.2656463765       12.8994858414  W2        7851            0.0000000000
     23552      7851  TIP3      H1             14.1632312922       -8.0372763765       13.4725458414  W2        7851            0.0000000000
     23553      7851  TIP3      H2             15.3423512922       -8.9793763765       13.3542358414  W2        7851            0.0000000000
     23554      7852  TIP3      OH2            14.7924812922      -10.0913863765       21.9671858414  W2        7852            0.0000000000
     23555      7852  TIP3      H1             14.8723912922       -9.3279463765       22.5390358414  W2        7852            0.0000000000
     23556      7852  TIP3      H2             14.1912512922       -9.8121463765       21.2766958414  W2        7852            0.0000000000
     23557      7853  TIP3      OH2             6.5405012922       -7.6350263765       14.7819858414  W2        7853            0.0000000000
     23558      7853  TIP3      H1              6.2100212922       -8.0056863765       13.9636858414  W2        7853            0.0000000000
     23559      7853  TIP3      H2              7.1289112922       -8.3056263765       15.1288158414  W2        7853            0.0000000000
     23560      7854  TIP3      OH2             7.9072512922       -4.2069663765       17.4632058414  W2        7854            0.0000000000
     23561      7854  TIP3      H1              7.8123812922       -4.7856563765       16.7066658414  W2        7854            0.0000000000
     23562      7854  TIP3      H2              8.6366112922       -4.5783963765       17.9594858414  W2        7854            0.0000000000
     23563      7855  TIP3      OH2             6.9070512922       -8.8664663765       18.4154858414  W2        7855            0.0000000000
     23564      7855  TIP3      H1              7.4723012922       -8.7450463765       17.6526058414  W2        7855            0.0000000000
     23565      7855  TIP3      H2              7.2259412922       -8.2289663765       19.0543358414  W2        7855            0.0000000000
     23566      7856  TIP3      OH2            13.2162712922       -3.3632763765       19.1495358414  W2        7856            0.0000000000
     23567      7856  TIP3      H1             12.9759312922       -2.7009663765       19.7974558414  W2        7856            0.0000000000
     23568      7856  TIP3      H2             13.0180912922       -4.1977563765       19.5744958414  W2        7856            0.0000000000
     23569      7857  TIP3      OH2             7.7871212922       -4.4671963765       23.1326758414  W2        7857            0.0000000000
     23570      7857  TIP3      H1              7.4758712922       -3.6848763765       23.5879958414  W2        7857            0.0000000000
     23571      7857  TIP3      H2              7.1371412922       -4.6202863765       22.4468758414  W2        7857            0.0000000000
     23572      7858  TIP3      OH2            13.7660812922       -9.1033563765       10.5846058414  W2        7858            0.0000000000
     23573      7858  TIP3      H1             14.3456312922       -8.9533263765       11.3314958414  W2        7858            0.0000000000
     23574      7858  TIP3      H2             14.1800812922       -8.6326163765        9.8612458414  W2        7858            0.0000000000
     23575      7859  TIP3      OH2             4.7071112922       -8.2690863765       22.3612458414  W2        7859            0.0000000000
     23576      7859  TIP3      H1              4.7774312922       -7.6184063765       23.0597458414  W2        7859            0.0000000000
     23577      7859  TIP3      H2              3.8163312922       -8.1663363765       22.0263358414  W2        7859            0.0000000000
     23578      7860  TIP3      OH2            11.4925712922       -2.3665063765       14.0199158414  W2        7860            0.0000000000
     23579      7860  TIP3      H1             11.9663312922       -2.0708763765       14.7973358414  W2        7860            0.0000000000
     23580      7860  TIP3      H2             10.9295012922       -1.6283463765       13.7868758414  W2        7860            0.0000000000
     23581      7861  TIP3      OH2             6.0267112922       -2.3956963765       23.8960558414  W2        7861            0.0000000000
     23582      7861  TIP3      H1              6.0342412922       -2.5317263765       22.9486058414  W2        7861            0.0000000000
     23583      7861  TIP3      H2              5.1107512922       -2.5128863765       24.1480558414  W2        7861            0.0000000000
     23584      7862  TIP3      OH2            17.4649212922      -17.3533163765       10.3975758414  W2        7862            0.0000000000
     23585      7862  TIP3      H1             16.5649912922      -17.2144163765       10.6926358414  W2        7862            0.0000000000
     23586      7862  TIP3      H2             17.7167612922      -16.5218563765        9.9957458414  W2        7862            0.0000000000
     23587      7863  TIP3      OH2             5.5307712922       -8.5655963765       12.3712658414  W2        7863            0.0000000000
     23588      7863  TIP3      H1              5.2389012922       -7.7974263765       11.8803958414  W2        7863            0.0000000000
     23589      7863  TIP3      H2              4.8562912922       -9.2249763765       12.2084058414  W2        7863            0.0000000000
     23590      7864  TIP3      OH2            18.6540612922       -2.9870763765        8.7739658414  W2        7864            0.0000000000
     23591      7864  TIP3      H1             18.7274112922       -2.0480563765        8.9444958414  W2        7864            0.0000000000
     23592      7864  TIP3      H2             19.5595712922       -3.2922163765        8.7176958414  W2        7864            0.0000000000
     23593      7865  TIP3      OH2             1.6237812922       -6.2026763765       21.1862458414  W2        7865            0.0000000000
     23594      7865  TIP3      H1              1.1226212922       -6.2307363765       20.3712158414  W2        7865            0.0000000000
     23595      7865  TIP3      H2              1.6291512922       -7.1083563765       21.4959758414  W2        7865            0.0000000000
     23596      7866  TIP3      OH2             1.3740512922       -3.4222963765       18.0702658414  W2        7866            0.0000000000
     23597      7866  TIP3      H1              2.3201112922       -3.5665963765       18.0512158414  W2        7866            0.0000000000
     23598      7866  TIP3      H2              1.2616812922       -2.6380163765       18.6073858414  W2        7866            0.0000000000
     23599      7867  TIP3      OH2            19.5719012922       -2.7563263765       23.7526358414  W2        7867            0.0000000000
     23600      7867  TIP3      H1             19.5225812922       -3.7115163765       23.7153958414  W2        7867            0.0000000000
     23601      7867  TIP3      H2             18.7451312922       -2.4887963765       24.1540158414  W2        7867            0.0000000000
     23602      7868  TIP3      OH2            10.5503012922       -3.1824063765       22.6287758414  W2        7868            0.0000000000
     23603      7868  TIP3      H1             10.6377612922       -2.3559463765       23.1036858414  W2        7868            0.0000000000
     23604      7868  TIP3      H2              9.6868112922       -3.5120263765       22.8777058414  W2        7868            0.0000000000
     23605      7869  TIP3      OH2            10.9648812922        0.5899636235       12.4348358414  W2        7869            0.0000000000
     23606      7869  TIP3      H1             10.8894812922        0.4686836235       11.4883558414  W2        7869            0.0000000000
     23607      7869  TIP3      H2             10.9977512922        1.5392336235       12.5532958414  W2        7869            0.0000000000
     23608      7870  TIP3      OH2             4.6182612922       -0.6213363765       14.2157358414  W2        7870            0.0000000000
     23609      7870  TIP3      H1              4.7703012922       -0.9692963765       15.0943858414  W2        7870            0.0000000000
     23610      7870  TIP3      H2              3.7673012922       -0.9776063765       13.9604558414  W2        7870            0.0000000000
     23611      7871  TIP3      OH2            14.0664812922       -0.2560163765        9.4370758414  W2        7871            0.0000000000
     23612      7871  TIP3      H1             14.4413212922       -1.0004063765        8.9663358414  W2        7871            0.0000000000
     23613      7871  TIP3      H2             14.0708512922       -0.5259563765       10.3554058414  W2        7871            0.0000000000
     23614      7872  TIP3      OH2            13.7352912922       -0.3303063765       12.1862958414  W2        7872            0.0000000000
     23615      7872  TIP3      H1             12.8002712922       -0.2301163765       12.3649958414  W2        7872            0.0000000000
     23616      7872  TIP3      H2             14.0154812922       -1.0397063765       12.7646158414  W2        7872            0.0000000000
     23617      7873  TIP3      OH2            16.7238812922      -11.2630763765       24.2328558414  W2        7873            0.0000000000
     23618      7873  TIP3      H1             16.3165612922      -10.7825163765       23.5121858414  W2        7873            0.0000000000
     23619      7873  TIP3      H2             16.7644512922      -12.1684763765       23.9249358414  W2        7873            0.0000000000
     23620      7874  TIP3      OH2             3.8728312922       -4.8791363765       22.2295258414  W2        7874            0.0000000000
     23621      7874  TIP3      H1              4.0889612922       -5.2405763765       23.0891058414  W2        7874            0.0000000000
     23622      7874  TIP3      H2              3.0173012922       -5.2537563765       22.0198758414  W2        7874            0.0000000000
     23623      7875  TIP3      OH2             6.4916312922      -16.4090863765       18.2249458414  W2        7875            0.0000000000
     23624      7875  TIP3      H1              5.6300012922      -16.4962663765       17.8172358414  W2        7875            0.0000000000
     23625      7875  TIP3      H2              6.4692012922      -15.5530763765       18.6527058414  W2        7875            0.0000000000
     23626      7876  TIP3      OH2            11.1544112922      -16.6870463765       21.5996458414  W2        7876            0.0000000000
     23627      7876  TIP3      H1             11.5747212922      -17.1023363765       22.3527058414  W2        7876            0.0000000000
     23628      7876  TIP3      H2             10.2213712922      -16.8657163765       21.7168458414  W2        7876            0.0000000000
     23629      7877  TIP3      OH2            14.4809012922      -12.9315263765       22.4530958414  W2        7877            0.0000000000
     23630      7877  TIP3      H1             13.9668512922      -13.0573063765       23.2506958414  W2        7877            0.0000000000
     23631      7877  TIP3      H2             14.3253712922      -12.0192163765       22.2087158414  W2        7877            0.0000000000
     23632      7878  TIP3      OH2            15.2433912922       -8.0705263765        8.2143958414  W2        7878            0.0000000000
     23633      7878  TIP3      H1             15.2854712922       -8.2931363765        7.2843958414  W2        7878            0.0000000000
     23634      7878  TIP3      H2             16.0926012922       -7.6718163765        8.4043858414  W2        7878            0.0000000000
     23635      7879  TIP3      OH2            10.8161412922      -14.1947063765        8.8847258414  W2        7879            0.0000000000
     23636      7879  TIP3      H1             10.5626212922      -14.1755463765        9.8075358414  W2        7879            0.0000000000
     23637      7879  TIP3      H2             10.5593512922      -15.0661663765        8.5833458414  W2        7879            0.0000000000
     23638      7880  TIP3      OH2             6.5826412922      -11.4436363765       19.3199658414  W2        7880            0.0000000000
     23639      7880  TIP3      H1              5.9408512922      -11.4839063765       20.0289758414  W2        7880            0.0000000000
     23640      7880  TIP3      H2              6.6198412922      -10.5171663765       19.0822658414  W2        7880            0.0000000000
     23641      7881  TIP3      OH2             6.5795512922      -11.2226263765       14.2319658414  W2        7881            0.0000000000
     23642      7881  TIP3      H1              5.6868412922      -11.5630163765       14.1733458414  W2        7881            0.0000000000
     23643      7881  TIP3      H2              7.0302112922      -11.5995363765       13.4762858414  W2        7881            0.0000000000
     23644      7882  TIP3      OH2            12.1151012922      -10.8065963765       13.0490458414  W2        7882            0.0000000000
     23645      7882  TIP3      H1             11.7061312922       -9.9917363765       12.7575258414  W2        7882            0.0000000000
     23646      7882  TIP3      H2             12.8357212922      -10.9465863765       12.4347558414  W2        7882            0.0000000000
     23647      7883  TIP3      OH2            11.2172612922      -10.6309563765       24.5371158414  W2        7883            0.0000000000
     23648      7883  TIP3      H1             10.6546412922      -11.3357963765       24.8578958414  W2        7883            0.0000000000
     23649      7883  TIP3      H2             12.0436012922      -10.7517663765       25.0048758414  W2        7883            0.0000000000
     23650      7884  TIP3      OH2            13.1198712922      -11.3605563765       15.8630158414  W2        7884            0.0000000000
     23651      7884  TIP3      H1             12.9243212922      -10.7548763765       15.1480758414  W2        7884            0.0000000000
     23652      7884  TIP3      H2             13.3011312922      -12.1940363765       15.4286458414  W2        7884            0.0000000000
     23653      7885  TIP3      OH2             4.3326912922      -11.1232863765       21.1871658414  W2        7885            0.0000000000
     23654      7885  TIP3      H1              4.2946312922      -10.7231263765       22.0558758414  W2        7885            0.0000000000
     23655      7885  TIP3      H2              3.8418012922      -11.9400463765       21.2774558414  W2        7885            0.0000000000
     23656      7886  TIP3      OH2             7.6984312922      -13.7490563765        7.9857658414  W2        7886            0.0000000000
     23657      7886  TIP3      H1              7.2675012922      -14.1940463765        8.7155058414  W2        7886            0.0000000000
     23658      7886  TIP3      H2              6.9803012922      -13.3774263765        7.4735158414  W2        7886            0.0000000000
     23659      7887  TIP3      OH2             0.9407712922      -14.0071063765       15.0376358414  W2        7887            0.0000000000
     23660      7887  TIP3      H1              1.5715412922      -14.0358963765       15.7570258414  W2        7887            0.0000000000
     23661      7887  TIP3      H2              1.3902012922      -14.4322363765       14.3072258414  W2        7887            0.0000000000
     23662      7888  TIP3      OH2             2.2149812922      -13.2609063765       10.4616758414  W2        7888            0.0000000000
     23663      7888  TIP3      H1              2.6891512922      -12.6699163765        9.8767658414  W2        7888            0.0000000000
     23664      7888  TIP3      H2              1.4976212922      -12.7306163765       10.8086858414  W2        7888            0.0000000000
     23665      7889  TIP3      OH2            12.3837912922       -9.7224263765       20.5342558414  W2        7889            0.0000000000
     23666      7889  TIP3      H1             12.7072712922      -10.3534563765       19.8913058414  W2        7889            0.0000000000
     23667      7889  TIP3      H2             11.9437212922      -10.2572063765       21.1949958414  W2        7889            0.0000000000
     23668      7890  TIP3      OH2             9.1610812922      -13.7948763765       15.3183758414  W2        7890            0.0000000000
     23669      7890  TIP3      H1              8.2501912922      -13.7381963765       15.6069758414  W2        7890            0.0000000000
     23670      7890  TIP3      H2              9.6663712922      -13.8553263765       16.1290958414  W2        7890            0.0000000000
     23671      7891  TIP3      OH2             3.9894212922      -12.1662463765       14.1451358414  W2        7891            0.0000000000
     23672      7891  TIP3      H1              3.1002212922      -12.0666963765       13.8050958414  W2        7891            0.0000000000
     23673      7891  TIP3      H2              4.2859112922      -13.0079463765       13.7989258414  W2        7891            0.0000000000
     23674      7892  TIP3      OH2             7.6426012922      -12.1659863765       11.8015958414  W2        7892            0.0000000000
     23675      7892  TIP3      H1              8.5741512922      -12.0369863765       11.9799058414  W2        7892            0.0000000000
     23676      7892  TIP3      H2              7.4276312922      -11.4965563765       11.1520658414  W2        7892            0.0000000000
     23677      7893  TIP3      OH2            13.5662712922      -14.5602463765       18.5825558414  W2        7893            0.0000000000
     23678      7893  TIP3      H1             12.8894312922      -14.4289363765       19.2465258414  W2        7893            0.0000000000
     23679      7893  TIP3      H2             13.0807612922      -14.7152963765       17.7723258414  W2        7893            0.0000000000
     23680      7894  TIP3      OH2             6.3166212922      -10.9717663765        9.3682058414  W2        7894            0.0000000000
     23681      7894  TIP3      H1              5.7741312922      -11.3513863765        8.6769658414  W2        7894            0.0000000000
     23682      7894  TIP3      H2              7.1501112922      -10.7772963765        8.9396158414  W2        7894            0.0000000000
     23683      7895  TIP3      OH2            16.8537812922        1.1112936235       24.8593158414  W2        7895            0.0000000000
     23684      7895  TIP3      H1             17.0536512922        1.5354836235       24.0248458414  W2        7895            0.0000000000
     23685      7895  TIP3      H2             17.5091512922        1.4551136235       25.4663558414  W2        7895            0.0000000000
     23686      7896  TIP3      OH2             4.4517612922       -6.4145763765       24.4673658414  W2        7896            0.0000000000
     23687      7896  TIP3      H1              5.1840012922       -6.1599863765       25.0288158414  W2        7896            0.0000000000
     23688      7896  TIP3      H2              3.6716312922       -6.2100363765       24.9829058414  W2        7896            0.0000000000
     23689      7897  TIP3      OH2            10.4810512922      -11.0075763765       17.2053358414  W2        7897            0.0000000000
     23690      7897  TIP3      H1             11.0453912922      -11.5539163765       16.6582958414  W2        7897            0.0000000000
     23691      7897  TIP3      H2             10.3333912922      -11.5293863765       17.9940958414  W2        7897            0.0000000000
     23692      7898  TIP3      OH2             5.4830212922      -14.8709663765       13.6238158414  W2        7898            0.0000000000
     23693      7898  TIP3      H1              5.1659712922      -15.7734363765       13.5883558414  W2        7898            0.0000000000
     23694      7898  TIP3      H2              6.2644312922      -14.8692263765       13.0709758414  W2        7898            0.0000000000
     23695      7899  TIP3      OH2             9.1076412922      -12.6189663765       19.6193758414  W2        7899            0.0000000000
     23696      7899  TIP3      H1              8.2721712922      -12.1650163765       19.7296158414  W2        7899            0.0000000000
     23697      7899  TIP3      H2              9.6317012922      -12.3431163765       20.3713658414  W2        7899            0.0000000000
     23698      7900  TIP3      OH2             9.6519012922       -6.4061963765       11.3040158414  W2        7900            0.0000000000
     23699      7900  TIP3      H1              8.9070012922       -6.9136663765       10.9818058414  W2        7900            0.0000000000
     23700      7900  TIP3      H2              9.5176212922       -6.3573963765       12.2504958414  W2        7900            0.0000000000
     23701      7901  TIP3      OH2            16.8017912922       -7.2733763765       20.0907758414  W2        7901            0.0000000000
     23702      7901  TIP3      H1             17.4436712922       -6.8167463765       19.5469958414  W2        7901            0.0000000000
     23703      7901  TIP3      H2             15.9714812922       -7.1601363765       19.6281858414  W2        7901            0.0000000000
     23704      7902  TIP3      OH2            13.5495812922      -13.5922063765        9.5032758414  W2        7902            0.0000000000
     23705      7902  TIP3      H1             12.6110012922      -13.4806463765        9.3521558414  W2        7902            0.0000000000
     23706      7902  TIP3      H2             13.8467912922      -12.7355163765        9.8098458414  W2        7902            0.0000000000
     23707      7903  TIP3      OH2            11.1711112922       -6.2218663765       22.5409258414  W2        7903            0.0000000000
     23708      7903  TIP3      H1             10.8257212922       -6.6036263765       23.3478858414  W2        7903            0.0000000000
     23709      7903  TIP3      H2             10.9711212922       -5.2885063765       22.6122158414  W2        7903            0.0000000000
     23710      7904  TIP3      OH2            14.2679312922      -11.7249363765       11.1640158414  W2        7904            0.0000000000
     23711      7904  TIP3      H1             15.1598312922      -11.8624363765       11.4831358414  W2        7904            0.0000000000
     23712      7904  TIP3      H2             14.3242912922      -10.9343263765       10.6273658414  W2        7904            0.0000000000
     23713      7905  TIP3      OH2             4.7767312922       -7.1111963765       17.0738058414  W2        7905            0.0000000000
     23714      7905  TIP3      H1              5.5214512922       -7.1136263765       16.4724558414  W2        7905            0.0000000000
     23715      7905  TIP3      H2              4.8543912922       -7.9348163765       17.5553158414  W2        7905            0.0000000000
     23716      7906  TIP3      OH2            11.7773112922       -4.9477663765       10.3294758414  W2        7906            0.0000000000
     23717      7906  TIP3      H1             11.4821512922       -4.1209763765       10.7109558414  W2        7906            0.0000000000
     23718      7906  TIP3      H2             11.0743112922       -5.5670763765       10.5256158414  W2        7906            0.0000000000
     23719      7907  TIP3      OH2             1.7847012922       -8.6505063765       22.3886558414  W2        7907            0.0000000000
     23720      7907  TIP3      H1              2.0075612922       -9.0685463765       23.2204058414  W2        7907            0.0000000000
     23721      7907  TIP3      H2              1.1827112922       -9.2630063765       21.9659358414  W2        7907            0.0000000000
     23722      7908  TIP3      OH2             8.8011912922       -9.1335163765       24.6016258414  W2        7908            0.0000000000
     23723      7908  TIP3      H1              8.5052712922       -9.2992163765       23.7065358414  W2        7908            0.0000000000
     23724      7908  TIP3      H2              9.7327112922       -9.3534863765       24.5910158414  W2        7908            0.0000000000
     23725      7909  TIP3      OH2            13.4214712922       -3.7603163765       22.4914258414  W2        7909            0.0000000000
     23726      7909  TIP3      H1             12.5209012922       -3.5770563765       22.2238158414  W2        7909            0.0000000000
     23727      7909  TIP3      H2             13.4555812922       -3.5013863765       23.4123058414  W2        7909            0.0000000000
     23728      7910  TIP3      OH2            19.1528012922      -11.5155263765       10.8586858414  W2        7910            0.0000000000
     23729      7910  TIP3      H1             18.5984312922      -11.9117263765       10.1864358414  W2        7910            0.0000000000
     23730      7910  TIP3      H2             19.2531612922      -10.6050063765       10.5810158414  W2        7910            0.0000000000
     23731      7911  TIP3      OH2            19.1160012922       -5.7153563765       23.6958358414  W2        7911            0.0000000000
     23732      7911  TIP3      H1             18.2648512922       -5.4769763765       23.3284758414  W2        7911            0.0000000000
     23733      7911  TIP3      H2             19.7063412922       -5.7320363765       22.9425458414  W2        7911            0.0000000000
     23734      7912  TIP3      OH2            17.4479712922       -2.7294863765       11.3238958414  W2        7912            0.0000000000
     23735      7912  TIP3      H1             17.0750812922       -3.5551063765       11.6329558414  W2        7912            0.0000000000
     23736      7912  TIP3      H2             17.7253212922       -2.9125463765       10.4262358414  W2        7912            0.0000000000
     23737      7913  TIP3      OH2            14.6083612922       -7.9215363765       18.3450858414  W2        7913            0.0000000000
     23738      7913  TIP3      H1             13.6800512922       -8.1533463765       18.3180158414  W2        7913            0.0000000000
     23739      7913  TIP3      H2             15.0594712922       -8.6985563765       18.0149658414  W2        7913            0.0000000000
     23740      7914  TIP3      OH2             7.1516712922       -3.5933763765       14.4779558414  W2        7914            0.0000000000
     23741      7914  TIP3      H1              7.6788912922       -2.8199363765       14.2778358414  W2        7914            0.0000000000
     23742      7914  TIP3      H2              6.2715212922       -3.3684563765       14.1763558414  W2        7914            0.0000000000
     23743      7915  TIP3      OH2             2.9064412922       -8.7309663765        9.0651958414  W2        7915            0.0000000000
     23744      7915  TIP3      H1              3.5224312922       -8.1042463765        9.4446758414  W2        7915            0.0000000000
     23745      7915  TIP3      H2              2.0447012922       -8.4149863765        9.3368458414  W2        7915            0.0000000000
     23746      7916  TIP3      OH2             8.5789012922       -5.9303863765       14.0543858414  W2        7916            0.0000000000
     23747      7916  TIP3      H1              8.3379012922       -5.0049463765       14.0959158414  W2        7916            0.0000000000
     23748      7916  TIP3      H2              7.8382612922       -6.3892563765       14.4507758414  W2        7916            0.0000000000
     23749      7917  TIP3      OH2             9.0935612922       -1.7810263765       20.3694958414  W2        7917            0.0000000000
     23750      7917  TIP3      H1              9.4560312922       -0.9264663765       20.1359358414  W2        7917            0.0000000000
     23751      7917  TIP3      H2              9.6250812922       -2.0728663765       21.1101258414  W2        7917            0.0000000000
     23752      7918  TIP3      OH2             7.2619812922       -0.9086263765       13.5996058414  W2        7918            0.0000000000
     23753      7918  TIP3      H1              6.3120312922       -0.8028863765       13.6509358414  W2        7918            0.0000000000
     23754      7918  TIP3      H2              7.6137912922       -0.0878863765       13.9443558414  W2        7918            0.0000000000
     23755      7919  TIP3      OH2            12.6376412922       -5.6819563765       20.0700558414  W2        7919            0.0000000000
     23756      7919  TIP3      H1             12.2117712922       -5.9097863765       20.8964558414  W2        7919            0.0000000000
     23757      7919  TIP3      H2             13.2182212922       -6.4207763765       19.8875858414  W2        7919            0.0000000000
     23758      7920  TIP3      OH2            14.8405312922       -4.7529063765        9.1439558414  W2        7920            0.0000000000
     23759      7920  TIP3      H1             15.1938412922       -5.1329263765        9.9483058414  W2        7920            0.0000000000
     23760      7920  TIP3      H2             13.8918812922       -4.8464263765        9.2308858414  W2        7920            0.0000000000
     23761      7921  TIP3      OH2            15.2960612922       -1.1300063765       22.5395358414  W2        7921            0.0000000000
     23762      7921  TIP3      H1             14.6943812922       -1.6857163765       22.0441658414  W2        7921            0.0000000000
     23763      7921  TIP3      H2             15.5774312922       -0.4630263765       21.9132758414  W2        7921            0.0000000000
     23764      7922  TIP3      OH2            19.3439712922       -0.2736563765        9.3449758414  W2        7922            0.0000000000
     23765      7922  TIP3      H1             20.0877612922        0.3123936235        9.2051358414  W2        7922            0.0000000000
     23766      7922  TIP3      H2             18.6497812922        0.2949236235        9.6782158414  W2        7922            0.0000000000
     23767      7923  TIP3      OH2             3.4186512922      -13.8972363765       21.9467958414  W2        7923            0.0000000000
     23768      7923  TIP3      H1              2.5258812922      -13.5586963765       21.8791958414  W2        7923            0.0000000000
     23769      7923  TIP3      H2              3.3199312922      -14.7526263765       22.3648758414  W2        7923            0.0000000000
     23770      7924  TIP3      OH2            15.7064612922       -6.0807063765       11.3707458414  W2        7924            0.0000000000
     23771      7924  TIP3      H1             15.4292212922       -6.8087763765       11.9268558414  W2        7924            0.0000000000
     23772      7924  TIP3      H2             16.6337612922       -5.9615063765       11.5760058414  W2        7924            0.0000000000
     23773      7925  TIP3      OH2             3.0698512922       -2.0927963765       20.3817358414  W2        7925            0.0000000000
     23774      7925  TIP3      H1              3.2868812922       -3.0245563765       20.3507058414  W2        7925            0.0000000000
     23775      7925  TIP3      H2              3.3162012922       -1.8182963765       21.2650158414  W2        7925            0.0000000000
     23776      7926  TIP3      OH2             8.9313112922       -3.6412963765        7.5909558414  W2        7926            0.0000000000
     23777      7926  TIP3      H1              9.1702912922       -4.3894863765        7.0438458414  W2        7926            0.0000000000
     23778      7926  TIP3      H2              8.6624412922       -4.0291263765        8.4237358414  W2        7926            0.0000000000
     23779      7927  TIP3      OH2             7.8683712922       -4.0709163765       10.0472158414  W2        7927            0.0000000000
     23780      7927  TIP3      H1              8.0151712922       -4.5909363765       10.8373058414  W2        7927            0.0000000000
     23781      7927  TIP3      H2              7.8655412922       -3.1641563765       10.3538058414  W2        7927            0.0000000000
     23782      7928  TIP3      OH2             4.3214812922       -6.8185863765       10.5577558414  W2        7928            0.0000000000
     23783      7928  TIP3      H1              3.6354112922       -6.4663363765       11.1247258414  W2        7928            0.0000000000
     23784      7928  TIP3      H2              4.8442712922       -6.0556263765       10.3111858414  W2        7928            0.0000000000
     23785      7929  TIP3      OH2            12.1529912922      -14.1562063765       20.8366558414  W2        7929            0.0000000000
     23786      7929  TIP3      H1             12.8517812922      -14.0823363765       21.4866258414  W2        7929            0.0000000000
     23787      7929  TIP3      H2             11.7721312922      -15.0207063765       20.9909458414  W2        7929            0.0000000000
     23788      7930  TIP3      OH2            12.9374812922      -14.5040363765       11.9338858414  W2        7930            0.0000000000
     23789      7930  TIP3      H1             13.1573112922      -14.0324963765       11.1304258414  W2        7930            0.0000000000
     23790      7930  TIP3      H2             13.4958812922      -14.1097763765       12.6039458414  W2        7930            0.0000000000
     23791      7931  TIP3      OH2            10.6060912922       -2.3735563765       10.7966358414  W2        7931            0.0000000000
     23792      7931  TIP3      H1              9.7897012922       -1.8765863765       10.8490658414  W2        7931            0.0000000000
     23793      7931  TIP3      H2             11.1357212922       -1.8982063765       10.1565158414  W2        7931            0.0000000000
     23794      7932  TIP3      OH2            10.1374712922      -12.7761563765       12.7687258414  W2        7932            0.0000000000
     23795      7932  TIP3      H1             10.9497312922      -12.2718363765       12.8148958414  W2        7932            0.0000000000
     23796      7932  TIP3      H2              9.8927712922      -12.9211863765       13.6826858414  W2        7932            0.0000000000
     23797      7933  TIP3      OH2            10.6731112922      -11.7898863765       21.9533858414  W2        7933            0.0000000000
     23798      7933  TIP3      H1             10.7921412922      -11.2163463765       22.7104258414  W2        7933            0.0000000000
     23799      7933  TIP3      H2             11.3285712922      -12.4779463765       22.0681658414  W2        7933            0.0000000000
     23800      7934  TIP3      OH2            11.0211412922      -15.6948563765       13.7068358414  W2        7934            0.0000000000
     23801      7934  TIP3      H1             10.6744912922      -15.0777963765       14.3512658414  W2        7934            0.0000000000
     23802      7934  TIP3      H2             11.6798312922      -15.1942863765       13.2253858414  W2        7934            0.0000000000
     23803      7935  TIP3      OH2             7.9444012922       -1.3298363765       10.7783258414  W2        7935            0.0000000000
     23804      7935  TIP3      H1              8.1052712922       -0.5300863765       10.2775858414  W2        7935            0.0000000000
     23805      7935  TIP3      H2              7.7471812922       -1.0232363765       11.6633858414  W2        7935            0.0000000000
     23806      7936  TIP3      OH2             6.6788412922      -14.6319163765       10.3940858414  W2        7936            0.0000000000
     23807      7936  TIP3      H1              6.5953212922      -13.7436063765       10.7407258414  W2        7936            0.0000000000
     23808      7936  TIP3      H2              7.5688712922      -14.8972463765       10.6257658414  W2        7936            0.0000000000
     23809      7937  TIP3      OH2            16.8776912922      -13.8828563765       22.7883558414  W2        7937            0.0000000000
     23810      7937  TIP3      H1             15.9612712922      -13.6206863765       22.7007258414  W2        7937            0.0000000000
     23811      7937  TIP3      H2             17.2131912922      -13.8859563765       21.8918858414  W2        7937            0.0000000000
     23812      7938  TIP3      OH2            15.4797912922      -10.1327563765       16.8840858414  W2        7938            0.0000000000
     23813      7938  TIP3      H1             14.6822312922      -10.5477363765       16.5555858414  W2        7938            0.0000000000
     23814      7938  TIP3      H2             15.9249012922      -10.8233863765       17.3751358414  W2        7938            0.0000000000
     23815      7939  TIP3      OH2             4.9373712922       -4.2046963765        9.4545358414  W2        7939            0.0000000000
     23816      7939  TIP3      H1              5.5295212922       -3.5052163765        9.7307758414  W2        7939            0.0000000000
     23817      7939  TIP3      H2              5.3966712922       -4.6377463765        8.7349958414  W2        7939            0.0000000000
     23818      7940  TIP3      OH2             3.2532912922      -11.5403963765        8.5704758414  W2        7940            0.0000000000
     23819      7940  TIP3      H1              3.2085512922      -10.6010863765        8.7491758414  W2        7940            0.0000000000
     23820      7940  TIP3      H2              2.3656112922      -11.7759063765        8.3006858414  W2        7940            0.0000000000
     23821      7941  TIP3      OH2            16.5662512922       -0.8765063765       18.5064358414  W2        7941            0.0000000000
     23822      7941  TIP3      H1             16.4106812922       -0.1980663765       17.8493658414  W2        7941            0.0000000000
     23823      7941  TIP3      H2             17.4988912922       -0.8045763765       18.7094958414  W2        7941            0.0000000000
     23824      7942  TIP3      OH2             4.0614912922      -16.7587363765       17.2435758414  W2        7942            0.0000000000
     23825      7942  TIP3      H1              3.8324712922      -16.6994863765       16.3160758414  W2        7942            0.0000000000
     23826      7942  TIP3      H2              3.6188312922      -17.5501863765       17.5499858414  W2        7942            0.0000000000
     23827      7943  TIP3      OH2             2.9918212922       -2.8180263765       13.4041558414  W2        7943            0.0000000000
     23828      7943  TIP3      H1              2.1596812922       -2.3457563765       13.4312958414  W2        7943            0.0000000000
     23829      7943  TIP3      H2              3.5376512922       -2.3082663765       12.8054658414  W2        7943            0.0000000000
     23830      7944  TIP3      OH2             2.2801912922       -0.2056563765       24.7339558414  W2        7944            0.0000000000
     23831      7944  TIP3      H1              2.8204112922       -0.4222563765       25.4938758414  W2        7944            0.0000000000
     23832      7944  TIP3      H2              1.7989912922       -1.0110563765       24.5442058414  W2        7944            0.0000000000
     23833      7945  TIP3      OH2             6.8775312922       -1.2862163765       26.3543758414  W2        7945            0.0000000000
     23834      7945  TIP3      H1              7.6452512922       -1.7451363765       26.6952958414  W2        7945            0.0000000000
     23835      7945  TIP3      H2              6.8561512922       -1.5122363765       25.4244958414  W2        7945            0.0000000000
     23836      7946  TIP3      OH2            10.9694912922       -1.7781563765        7.7295558414  W2        7946            0.0000000000
     23837      7946  TIP3      H1             10.3255912922       -2.4092963765        8.0509258414  W2        7946            0.0000000000
     23838      7946  TIP3      H2             11.7313212922       -2.3093563765        7.4979058414  W2        7946            0.0000000000
     23839      7947  TIP3      OH2            13.4544012922       -2.9061063765       25.0835258414  W2        7947            0.0000000000
     23840      7947  TIP3      H1             13.1033512922       -3.7628063765       25.3265658414  W2        7947            0.0000000000
     23841      7947  TIP3      H2             14.1807212922       -2.7634363765       25.6904258414  W2        7947            0.0000000000
     23842      7948  TIP3      OH2            15.5737812922       -1.9611663765        7.9633558414  W2        7948            0.0000000000
     23843      7948  TIP3      H1             15.8568212922       -2.7556463765        8.4160458414  W2        7948            0.0000000000
     23844      7948  TIP3      H2             16.3135712922       -1.7280663765        7.4024658414  W2        7948            0.0000000000
     23845      7949  TIP3      OH2             2.1871412922       -6.3952463765       25.6883858414  W2        7949            0.0000000000
     23846      7949  TIP3      H1              2.3311912922       -7.2971763765       25.4020558414  W2        7949            0.0000000000
     23847      7949  TIP3      H2              1.4148812922       -6.1090363765       25.2006158414  W2        7949            0.0000000000
     23848      7950  TIP3      OH2             6.5285112922       -6.0516763765        7.8208458414  W2        7950            0.0000000000
     23849      7950  TIP3      H1              6.5929212922       -6.8457163765        8.3514858414  W2        7950            0.0000000000
     23850      7950  TIP3      H2              7.1814312922       -6.1703963765        7.1310458414  W2        7950            0.0000000000
     23851      7951  TIP3      OH2             8.8427512922       -6.4254363765       25.1210258414  W2        7951            0.0000000000
     23852      7951  TIP3      H1              8.5141312922       -6.1546263765       24.2637658414  W2        7951            0.0000000000
     23853      7951  TIP3      H2              8.9945712922       -7.3664563765       25.0335258414  W2        7951            0.0000000000
     23854      7952  TIP3      OH2            11.8808512922       -5.0045063765        7.5566458414  W2        7952            0.0000000000
     23855      7952  TIP3      H1             11.6122612922       -4.8242963765        8.4575358414  W2        7952            0.0000000000
     23856      7952  TIP3      H2             11.6744112922       -5.9298863765        7.4252258414  W2        7952            0.0000000000
     23857      7953  TIP3      OH2            14.5772712922       -6.5097063765       22.5042558414  W2        7953            0.0000000000
     23858      7953  TIP3      H1             15.3227512922       -5.9213363765       22.3846558414  W2        7953            0.0000000000
     23859      7953  TIP3      H2             13.8199512922       -5.9277363765       22.5675658414  W2        7953            0.0000000000
     23860      7954  TIP3      OH2             3.0197912922       -9.1949163765       25.1083158414  W2        7954            0.0000000000
     23861      7954  TIP3      H1              3.4279112922      -10.0522563765       24.9873758414  W2        7954            0.0000000000
     23862      7954  TIP3      H2              2.7595512922       -9.1807863765       26.0293458414  W2        7954            0.0000000000
     23863      7955  TIP3      OH2             7.6778912922       -8.0790563765       10.1266458414  W2        7955            0.0000000000
     23864      7955  TIP3      H1              7.2180912922       -8.5632263765       10.8124958414  W2        7955            0.0000000000
     23865      7955  TIP3      H2              7.9327612922       -8.7475163765        9.4906958414  W2        7955            0.0000000000
     23866      7956  TIP3      OH2             6.9668212922      -10.1863463765       22.4826058414  W2        7956            0.0000000000
     23867      7956  TIP3      H1              6.3484312922       -9.5116863765       22.7630758414  W2        7956            0.0000000000
     23868      7956  TIP3      H2              7.3109412922       -9.8649563765       21.6492258414  W2        7956            0.0000000000
     23869      7957  TIP3      OH2             8.7489312922       -9.8358763765        8.3889658414  W2        7957            0.0000000000
     23870      7957  TIP3      H1              8.5684312922       -9.9907563765        7.4617958414  W2        7957            0.0000000000
     23871      7957  TIP3      H2              9.6989812922       -9.7280063765        8.4337558414  W2        7957            0.0000000000
     23872      7958  TIP3      OH2            11.9866412922       -7.7148163765       25.7600858414  W2        7958            0.0000000000
     23873      7958  TIP3      H1             12.9397612922       -7.6309063765       25.7326858414  W2        7958            0.0000000000
     23874      7958  TIP3      H2             11.8261012922       -8.4266363765       26.3795758414  W2        7958            0.0000000000
     23875      7959  TIP3      OH2            18.1387612922       -7.4814563765        7.8347758414  W2        7959            0.0000000000
     23876      7959  TIP3      H1             17.8652412922       -7.9059063765        7.0216058414  W2        7959            0.0000000000
     23877      7959  TIP3      H2             18.1781712922       -6.5500063765        7.6178158414  W2        7959            0.0000000000
     23878      7960  TIP3      OH2             7.3061912922      -12.8312663765       23.5649158414  W2        7960            0.0000000000
     23879      7960  TIP3      H1              7.4562812922      -13.5601363765       22.9628858414  W2        7960            0.0000000000
     23880      7960  TIP3      H2              7.3084312922      -12.0540963765       23.0061358414  W2        7960            0.0000000000
     23881      7961  TIP3      OH2             7.7187612922      -14.4616863765       21.0576558414  W2        7961            0.0000000000
     23882      7961  TIP3      H1              8.2545112922      -14.0100163765       20.4055858414  W2        7961            0.0000000000
     23883      7961  TIP3      H2              6.8667212922      -14.5697063765       20.6350658414  W2        7961            0.0000000000
     23884      7962  TIP3      OH2             9.3006012922       -9.0220663765       21.2971758414  W2        7962            0.0000000000
     23885      7962  TIP3      H1             10.0510812922       -9.1783163765       20.7239558414  W2        7962            0.0000000000
     23886      7962  TIP3      H2              8.9614312922       -8.1704063765       21.0217258414  W2        7962            0.0000000000
     23887      7963  TIP3      OH2            13.7162212922      -11.2068863765       26.3257058414  W2        7963            0.0000000000
     23888      7963  TIP3      H1             13.9083512922      -12.1379463765       26.2141558414  W2        7963            0.0000000000
     23889      7963  TIP3      H2             14.5738512922      -10.7819363765       26.3152458414  W2        7963            0.0000000000
     23890      7964  TIP3      OH2            15.0329412922       -8.4183663765       24.4029758414  W2        7964            0.0000000000
     23891      7964  TIP3      H1             14.7514412922       -7.7089063765       23.8253558414  W2        7964            0.0000000000
     23892      7964  TIP3      H2             15.9753712922       -8.4910663765       24.2520958414  W2        7964            0.0000000000
     23893      7965  TIP3      OH2             5.7848212922      -11.6329163765       25.4764758414  W2        7965            0.0000000000
     23894      7965  TIP3      H1              5.0177212922      -12.1654363765       25.2662358414  W2        7965            0.0000000000
     23895      7965  TIP3      H2              6.4637212922      -11.9428763765       24.8771058414  W2        7965            0.0000000000
     23896      7966  TIP3      OH2             8.5243112922      -17.0051163765       21.4890158414  W2        7966            0.0000000000
     23897      7966  TIP3      H1              8.4262712922      -16.0587963765       21.3836358414  W2        7966            0.0000000000
     23898      7966  TIP3      H2              7.7819312922      -17.3777363765       21.0133658414  W2        7966            0.0000000000
     23899      7967  TIP3      OH2             9.7883612922      -12.6835763765       25.0528558414  W2        7967            0.0000000000
     23900      7967  TIP3      H1              9.5529012922      -12.9029063765       25.9543458414  W2        7967            0.0000000000
     23901      7967  TIP3      H2              9.0050512922      -12.8904563765       24.5431058414  W2        7967            0.0000000000
     23902      7968  TIP3      OH2            12.5040212922      -13.5562263765       24.1282058414  W2        7968            0.0000000000
     23903      7968  TIP3      H1             11.5565612922      -13.5242563765       24.2605358414  W2        7968            0.0000000000
     23904      7968  TIP3      H2             12.8166912922      -14.1815163765       24.7820258414  W2        7968            0.0000000000
     23905      7969  TIP3      OH2            14.1381712922      -14.9221163765       26.1333958414  W2        7969            0.0000000000
     23906      7969  TIP3      H1             14.0413512922      -15.8743863765       26.1275858414  W2        7969            0.0000000000
     23907      7969  TIP3      H2             13.8164812922      -14.6534363765       26.9939458414  W2        7969            0.0000000000
     23908      7970  TIP3      OH2             3.9651012922      -13.7125363765       25.1809458414  W2        7970            0.0000000000
     23909      7970  TIP3      H1              4.1768412922      -14.4189263765       24.5706958414  W2        7970            0.0000000000
     23910      7970  TIP3      H2              3.8538512922      -14.1499363765       26.0250658414  W2        7970            0.0000000000
     23911      7971  TIP3      OH2             8.7461212922      -17.7113763765       24.1602958414  W2        7971            0.0000000000
     23912      7971  TIP3      H1              9.4579612922      -18.3511563765       24.1462058414  W2        7971            0.0000000000
     23913      7971  TIP3      H2              8.6451612922      -17.4445463765       23.2466058414  W2        7971            0.0000000000
     23914      7972  TIP3      OH2             9.0998712922      -16.0285363765       26.2139258414  W2        7972            0.0000000000
     23915      7972  TIP3      H1              8.9680912922      -16.5041563765       25.3937758414  W2        7972            0.0000000000
     23916      7972  TIP3      H2              8.5006112922      -15.2841763765       26.1586358414  W2        7972            0.0000000000
     23917      7973  TIP3      OH2             8.6461012922        0.8544936235        9.3903258414  W2        7973            0.0000000000
     23918      7973  TIP3      H1              9.5791712922        1.0123636235        9.5341658414  W2        7973            0.0000000000
     23919      7973  TIP3      H2              8.3819812922        1.5297936235        8.7654758414  W2        7973            0.0000000000
     23920      7974  TIP3      OH2             2.2145912922       -4.5091263765        8.8731358414  W2        7974            0.0000000000
     23921      7974  TIP3      H1              3.1285112922       -4.4302363765        9.1465258414  W2        7974            0.0000000000
     23922      7974  TIP3      H2              2.2219012922       -5.1961663765        8.2066958414  W2        7974            0.0000000000
     23923      7975  TIP3      OH2             0.8636512922        0.8837236235       13.9505258414  W2        7975            0.0000000000
     23924      7975  TIP3      H1              0.2163612922        0.4218936235       13.4176458414  W2        7975            0.0000000000
     23925      7975  TIP3      H2              1.2181112922        0.2120536235       14.5331458414  W2        7975            0.0000000000
     23926      7976  TIP3      OH2             1.7335712922       -1.0355763765       15.7551458414  W2        7976            0.0000000000
     23927      7976  TIP3      H1              1.3992512922       -1.9158463765       15.9271658414  W2        7976            0.0000000000
     23928      7976  TIP3      H2              1.9558112922       -0.6900763765       16.6197058414  W2        7976            0.0000000000
     23929      7977  TIP3      OH2            19.2820512922       -0.2259363765       18.7356258414  W2        7977            0.0000000000
     23930      7977  TIP3      H1             19.2607212922       -0.0410963765       19.6745658414  W2        7977            0.0000000000
     23931      7977  TIP3      H2             19.9726712922        0.3424636235       18.3947658414  W2        7977            0.0000000000
     23932      7978  TIP3      OH2            18.8453412922       -0.6588263765       21.6575358414  W2        7978            0.0000000000
     23933      7978  TIP3      H1             18.3582112922       -1.3944163765       21.2862758414  W2        7978            0.0000000000
     23934      7978  TIP3      H2             19.3946112922       -1.0524363765       22.3354758414  W2        7978            0.0000000000
     23935      7979  TIP3      OH2            17.2960712922       -4.8690163765       26.2955658414  W2        7979            0.0000000000
     23936      7979  TIP3      H1             16.4301812922       -4.9740463765       26.6897958414  W2        7979            0.0000000000
     23937      7979  TIP3      H2             17.6726612922       -4.1106863765       26.7420358414  W2        7979            0.0000000000
     23938      7980  TIP3      OH2            18.5970412922       -6.6126463765       11.8098158414  W2        7980            0.0000000000
     23939      7980  TIP3      H1             19.4471812922       -6.1915563765       11.9369758414  W2        7980            0.0000000000
     23940      7980  TIP3      H2             18.6025512922       -7.3526363765       12.4169558414  W2        7980            0.0000000000
     23941      7981  TIP3      OH2            18.9916012922       -8.5589063765       13.6333858414  W2        7981            0.0000000000
     23942      7981  TIP3      H1             18.2650612922       -9.0386463765       14.0311458414  W2        7981            0.0000000000
     23943      7981  TIP3      H2             19.5729312922       -8.3534363765       14.3655458414  W2        7981            0.0000000000
     23944      7982  TIP3      OH2            18.7507212922       -5.7741563765       18.5811458414  W2        7982            0.0000000000
     23945      7982  TIP3      H1             19.5841412922       -6.1521563765       18.3005058414  W2        7982            0.0000000000
     23946      7982  TIP3      H2             18.8627512922       -4.8310363765       18.4620558414  W2        7982            0.0000000000
     23947      7983  TIP3      OH2            17.2369512922       -2.8964063765       20.8879858414  W2        7983            0.0000000000
     23948      7983  TIP3      H1             16.5894812922       -2.5712563765       21.5135058414  W2        7983            0.0000000000
     23949      7983  TIP3      H2             16.7193512922       -3.3366363765       20.2138158414  W2        7983            0.0000000000
     23950      7984  TIP3      OH2            19.2599112922       -8.6580563765       10.0245158414  W2        7984            0.0000000000
     23951      7984  TIP3      H1             18.7380212922       -8.3016463765        9.3056058414  W2        7984            0.0000000000
     23952      7984  TIP3      H2             19.2268312922       -7.9832763765       10.7026058414  W2        7984            0.0000000000
     23953      7985  TIP3      OH2            17.6088112922      -11.4184963765        8.5752258414  W2        7985            0.0000000000
     23954      7985  TIP3      H1             17.7052512922      -10.7517963765        7.8951958414  W2        7985            0.0000000000
     23955      7985  TIP3      H2             17.4687712922      -12.2338663765        8.0937758414  W2        7985            0.0000000000
     23956      7986  TIP3      OH2            16.7782812922      -10.0382563765       14.1962558414  W2        7986            0.0000000000
     23957      7986  TIP3      H1             16.6281612922      -10.9833963765       14.1760358414  W2        7986            0.0000000000
     23958      7986  TIP3      H2             16.4247312922       -9.7571163765       15.0401658414  W2        7986            0.0000000000
     23959      7987  TIP3      OH2             1.8135212922       -7.9600363765       18.2066358414  W2        7987            0.0000000000
     23960      7987  TIP3      H1              1.9978112922       -8.0418663765       17.2709258414  W2        7987            0.0000000000
     23961      7987  TIP3      H2              2.6628112922       -8.0843363765       18.6302758414  W2        7987            0.0000000000
     23962      7988  TIP3      OH2            17.6345712922       -8.0679263765       23.8350858414  W2        7988            0.0000000000
     23963      7988  TIP3      H1             18.2173012922       -8.8026963765       24.0268058414  W2        7988            0.0000000000
     23964      7988  TIP3      H2             18.1985012922       -7.2958963765       23.8816658414  W2        7988            0.0000000000
     23965      7989  TIP3      OH2            19.1312812922      -10.1653463765       24.5196258414  W2        7989            0.0000000000
     23966      7989  TIP3      H1             18.2679512922      -10.5441363765       24.3540958414  W2        7989            0.0000000000
     23967      7989  TIP3      H2             19.7356512922      -10.9038663765       24.4452058414  W2        7989            0.0000000000
     23968      7990  TIP3      OH2            16.8561912922      -14.0105163765        7.6927758414  W2        7990            0.0000000000
     23969      7990  TIP3      H1             17.4667712922      -14.3818363765        8.3295958414  W2        7990            0.0000000000
     23970      7990  TIP3      H2             16.0193412922      -14.4318263765        7.8887758414  W2        7990            0.0000000000
     23971      7991  TIP3      OH2            16.4887612922      -12.4556763765       12.6587658414  W2        7991            0.0000000000
     23972      7991  TIP3      H1             16.7684712922      -13.3626363765       12.7829358414  W2        7991            0.0000000000
     23973      7991  TIP3      H2             17.2479312922      -12.0215263765       12.2696858414  W2        7991            0.0000000000
     23974      7992  TIP3      OH2            17.1005912922      -11.8739363765       18.0946558414  W2        7992            0.0000000000
     23975      7992  TIP3      H1             18.0333912922      -11.6619463765       18.0602558414  W2        7992            0.0000000000
     23976      7992  TIP3      H2             16.8653412922      -11.7727263765       19.0169558414  W2        7992            0.0000000000
     23977      7993  TIP3      OH2            17.1297812922      -11.1374063765       20.8705958414  W2        7993            0.0000000000
     23978      7993  TIP3      H1             16.2869112922      -10.8693663765       21.2365758414  W2        7993            0.0000000000
     23979      7993  TIP3      H2             17.5722112922      -10.3152163765       20.6597058414  W2        7993            0.0000000000
     23980      7994  TIP3      OH2             1.4110012922      -12.6895363765       24.3475158414  W2        7994            0.0000000000
     23981      7994  TIP3      H1              2.3304912922      -12.8117063765       24.5838258414  W2        7994            0.0000000000
     23982      7994  TIP3      H2              0.9614512922      -13.4395663765       24.7368658414  W2        7994            0.0000000000
     23983      7995  TIP3      OH2            19.4129412922      -17.1573863765       26.2240958414  W2        7995            0.0000000000
     23984      7995  TIP3      H1             19.7626412922      -17.8110363765       25.6185658414  W2        7995            0.0000000000
     23985      7995  TIP3      H2             19.5598912922      -16.3199763765       25.7843558414  W2        7995            0.0000000000
     23986      7996  TIP3      OH2            17.1022412922      -15.1927463765       12.7069658414  W2        7996            0.0000000000
     23987      7996  TIP3      H1             17.2847412922      -15.6415963765       13.5324658414  W2        7996            0.0000000000
     23988      7996  TIP3      H2             16.5025312922      -15.7773063765       12.2434258414  W2        7996            0.0000000000
     23989      7997  TIP3      OH2             2.6322512922      -14.3773763765       17.2388058414  W2        7997            0.0000000000
     23990      7997  TIP3      H1              3.0774112922      -15.1691263765       17.5407758414  W2        7997            0.0000000000
     23991      7997  TIP3      H2              3.0985512922      -13.6608563765       17.6693658414  W2        7997            0.0000000000
     23992      7998  TIP3      OH2             0.9362812922      -11.3780763765       18.3078258414  W2        7998            0.0000000000
     23993      7998  TIP3      H1              1.4282612922      -11.5990263765       17.5170258414  W2        7998            0.0000000000
     23994      7998  TIP3      H2              1.2983712922      -10.5377363765       18.5887758414  W2        7998            0.0000000000
     23995      7999  TIP3      OH2            18.9326612922      -15.0479263765       24.5732258414  W2        7999            0.0000000000
     23996      7999  TIP3      H1             18.0152312922      -14.7772163765       24.5375758414  W2        7999            0.0000000000
     23997      7999  TIP3      H2             19.0556012922      -15.5830863765       23.7891958414  W2        7999            0.0000000000
     23998      8000  TIP3      OH2            18.9688612922      -15.1249363765        9.2349958414  W2        8000            0.0000000000
     23999      8000  TIP3      H1             19.3811212922      -15.8463663765        8.7597958414  W2        8000            0.0000000000
     24000      8000  TIP3      H2             19.6505112922      -14.4554763765        9.2934258414  W2        8000            0.0000000000
     24001      8001  TIP3      OH2             1.2499312922      -15.1201663765       12.3620658414  W2        8001            0.0000000000
     24002      8001  TIP3      H1              0.3247712922      -14.9115063765       12.2326158414  W2        8001            0.0000000000
     24003      8001  TIP3      H2              1.7039212922      -14.6360863765       11.6722958414  W2        8001            0.0000000000
     24004      8002  TIP3      OH2            16.0206512922       -0.1359963765       14.3078058414  W2        8002            0.0000000000
     24005      8002  TIP3      H1             16.6729412922       -0.4837863765       13.6997158414  W2        8002            0.0000000000
     24006      8002  TIP3      H2             16.5310312922        0.3523236235       14.9537758414  W2        8002            0.0000000000
     24007      8003  TIP3      OH2             1.2134712922      -16.3822663765       20.7063158414  W2        8003            0.0000000000
     24008      8003  TIP3      H1              0.5485212922      -16.6282363765       21.3494058414  W2        8003            0.0000000000
     24009      8003  TIP3      H2              0.7706012922      -15.7602263765       20.1291158414  W2        8003            0.0000000000
     24010      8004  TIP3      OH2             3.4054012922       -3.2068563765       24.8508958414  W2        8004            0.0000000000
     24011      8004  TIP3      H1              2.5846512922       -3.0322063765       24.3903658414  W2        8004            0.0000000000
     24012      8004  TIP3      H2              3.1531812922       -3.2803863765       25.7713358414  W2        8004            0.0000000000
     24013      8005  TIP3      OH2             6.3596912922       -2.2327363765       21.1092958414  W2        8005            0.0000000000
     24014      8005  TIP3      H1              5.9348012922       -1.4228863765       20.8267558414  W2        8005            0.0000000000
     24015      8005  TIP3      H2              7.2639712922       -2.1473263765       20.8072758414  W2        8005            0.0000000000
     24016      8006  TIP3      OH2            10.6708312922       -0.8337363765       24.0686658414  W2        8006            0.0000000000
     24017      8006  TIP3      H1             10.8555812922       -1.1671263765       24.9466958414  W2        8006            0.0000000000
     24018      8006  TIP3      H2             11.5172812922       -0.5238763765       23.7465858414  W2        8006            0.0000000000
     24019      8007  TIP3      OH2            13.0158712922        0.4521536235       23.3128058414  W2        8007            0.0000000000
     24020      8007  TIP3      H1             13.6927612922       -0.1806163765       23.0727258414  W2        8007            0.0000000000
     24021      8007  TIP3      H2             13.3377512922        0.8532036235       24.1201358414  W2        8007            0.0000000000
     24022      8008  TIP3      OH2            17.9332512922      -16.9582963765       22.3923058414  W2        8008            0.0000000000
     24023      8008  TIP3      H1             17.1206012922      -16.6332663765       22.0047758414  W2        8008            0.0000000000
     24024      8008  TIP3      H2             18.1661012922      -17.7184463765       21.8592158414  W2        8008            0.0000000000
     24025      8009  TIP3      OH2             3.7613612922        1.0236536235       21.1568258414  W2        8009            0.0000000000
     24026      8009  TIP3      H1              3.0410012922        1.4637536235       20.7055958414  W2        8009            0.0000000000
     24027      8009  TIP3      H2              3.3957612922        0.7731236235       22.0052258414  W2        8009            0.0000000000
     24028      8010  TIP3      OH2             6.2286212922        0.6240436235       20.1865458414  W2        8010            0.0000000000
     24029      8010  TIP3      H1              5.3638412922        0.6958936235       20.5905558414  W2        8010            0.0000000000
     24030      8010  TIP3      H2              6.1735212922        1.1707736235       19.4027958414  W2        8010            0.0000000000
     24031      8011  TIP3      OH2            10.9391812922        0.5119336235       19.3621458414  W2        8011            0.0000000000
     24032      8011  TIP3      H1             10.4825812922        1.0409036235       18.7079858414  W2        8011            0.0000000000
     24033      8011  TIP3      H2             11.1019812922        1.1150736235       20.0873758414  W2        8011            0.0000000000
     24034      8012  TIP3      OH2            13.2668112922       -0.6101063765       20.3071758414  W2        8012            0.0000000000
     24035      8012  TIP3      H1             12.3621812922       -0.4450863765       20.0413858414  W2        8012            0.0000000000
     24036      8012  TIP3      H2             13.6956712922        0.2431136235       20.2415158414  W2        8012            0.0000000000
     24037      8013  TIP3      OH2            15.8710012922        0.9598036235       20.6019558414  W2        8013            0.0000000000
     24038      8013  TIP3      H1             15.6892012922        1.8756936235       20.3914458414  W2        8013            0.0000000000
     24039      8013  TIP3      H2             16.0477812922        0.5495136235       19.7554158414  W2        8013            0.0000000000
     24040      8014  TIP3      OH2             3.1761712922       -0.3530963765       18.0670058414  W2        8014            0.0000000000
     24041      8014  TIP3      H1              3.1577712922       -0.7785863765       18.9242358414  W2        8014            0.0000000000
     24042      8014  TIP3      H2              3.9809612922       -0.6715963765       17.6582258414  W2        8014            0.0000000000
     24043      8015  TIP3      OH2             5.3174812922       -1.6432263765       16.7219958414  W2        8015            0.0000000000
     24044      8015  TIP3      H1              5.0985512922       -2.5594863765       16.8915958414  W2        8015            0.0000000000
     24045      8015  TIP3      H2              6.1417012922       -1.5031863765       17.1881358414  W2        8015            0.0000000000
     24046      8016  TIP3      OH2             7.8547312922       -1.1732963765       17.5707958414  W2        8016            0.0000000000
     24047      8016  TIP3      H1              8.0673012922       -2.0613963765       17.2838858414  W2        8016            0.0000000000
     24048      8016  TIP3      H2              7.9192412922       -1.2075263765       18.5251958414  W2        8016            0.0000000000
     24049      8017  TIP3      OH2            11.3631012922      -15.5092363765       16.7151258414  W2        8017            0.0000000000
     24050      8017  TIP3      H1             10.6887812922      -16.1386763765       16.9707058414  W2        8017            0.0000000000
     24051      8017  TIP3      H2             11.9270212922      -15.9933463765       16.1119158414  W2        8017            0.0000000000
     24052      8018  TIP3      OH2            16.5058212922      -17.4018363765       16.8278358414  W2        8018            0.0000000000
     24053      8018  TIP3      H1             17.1095812922      -16.8542963765       16.3259358414  W2        8018            0.0000000000
     24054      8018  TIP3      H2             15.6360212922      -17.0827963765       16.5872458414  W2        8018            0.0000000000
     24055      8019  TIP3      OH2            18.2328612922      -16.2629663765       15.1609258414  W2        8019            0.0000000000
     24056      8019  TIP3      H1             18.8446112922      -16.7773963765       14.6342858414  W2        8019            0.0000000000
     24057      8019  TIP3      H2             18.6152012922      -15.3857563765       15.1843658414  W2        8019            0.0000000000
     24058      8020  TIP3      OH2             3.6898512922      -16.8752063765       14.5371158414  W2        8020            0.0000000000
     24059      8020  TIP3      H1              2.9128312922      -17.1097163765       14.0297058414  W2        8020            0.0000000000
     24060      8020  TIP3      H2              4.2202112922      -17.6719963765       14.5459158414  W2        8020            0.0000000000
     24061      8021  TIP3      OH2             2.5261912922      -17.0773963765       10.3407258414  W2        8021            0.0000000000
     24062      8021  TIP3      H1              2.9652612922      -16.4663463765        9.7490758414  W2        8021            0.0000000000
     24063      8021  TIP3      H2              1.8924312922      -16.5389863765       10.8147258414  W2        8021            0.0000000000
     24064      8022  TIP3      OH2             8.2691112922      -16.9484963765       14.3504258414  W2        8022            0.0000000000
     24065      8022  TIP3      H1              9.1434512922      -16.5600663765       14.3208558414  W2        8022            0.0000000000
     24066      8022  TIP3      H2              8.1331912922      -17.1637163765       15.2731458414  W2        8022            0.0000000000
     24067      8023  TIP3      OH2            13.8259512922      -16.9185163765       15.9995958414  W2        8023            0.0000000000
     24068      8023  TIP3      H1             13.9021112922      -16.8233563765       15.0501958414  W2        8023            0.0000000000
     24069      8023  TIP3      H2             13.5508712922      -17.8262263765       16.1285058414  W2        8023            0.0000000000
     24070      8024  TIP3      OH2            15.1792112922      -16.8927363765       11.6920958414  W2        8024            0.0000000000
     24071      8024  TIP3      H1             14.4763212922      -16.2778163765       11.4822358414  W2        8024            0.0000000000
     24072      8024  TIP3      H2             14.7343512922      -17.7300663765       11.8231858414  W2        8024            0.0000000000
     24073      8025  TIP3      OH2             2.4271412922       -1.1291763765       11.2382358414  W2        8025            0.0000000000
     24074      8025  TIP3      H1              1.7421312922       -1.1672863765       10.5707458414  W2        8025            0.0000000000
     24075      8025  TIP3      H2              2.4308612922       -0.2164163765       11.5264458414  W2        8025            0.0000000000
     24076      8026  TIP3      OH2             4.3871012922      -15.1612463765        8.7831358414  W2        8026            0.0000000000
     24077      8026  TIP3      H1              4.8784412922      -15.7910063765        8.2556858414  W2        8026            0.0000000000
     24078      8026  TIP3      H2              5.0107312922      -14.8653063765        9.4462558414  W2        8026            0.0000000000
     24079      8027  TIP3      OH2             9.4131112922      -14.8680963765       11.2401858414  W2        8027            0.0000000000
     24080      8027  TIP3      H1              9.5912412922      -15.5147763765       11.9230458414  W2        8027            0.0000000000
     24081      8027  TIP3      H2              9.3597312922      -14.0343263765       11.7072958414  W2        8027            0.0000000000
     24082      8028  TIP3      OH2            11.2914912922        0.0803136235        9.6358558414  W2        8028            0.0000000000
     24083      8028  TIP3      H1             12.1575112922        0.4470536235        9.4576758414  W2        8028            0.0000000000
     24084      8028  TIP3      H2             11.0447712922       -0.3588863765        8.8219358414  W2        8028            0.0000000000
     24085      8029  TIP3      OH2            18.0004512922       -0.3566563765       12.3149658414  W2        8029            0.0000000000
     24086      8029  TIP3      H1             17.8061612922       -1.1044463765       11.7499258414  W2        8029            0.0000000000
     24087      8029  TIP3      H2             17.9614612922        0.4013536235       11.7317558414  W2        8029            0.0000000000
     24088      8030  TIP3      OH2             3.6476512922      -16.3610163765       24.0547358414  W2        8030            0.0000000000
     24089      8030  TIP3      H1              3.2814712922      -17.1267563765       24.4972058414  W2        8030            0.0000000000
     24090      8030  TIP3      H2              4.5605012922      -16.3319963765       24.3412458414  W2        8030            0.0000000000
     24091      8031  TIP3      OH2             5.6207312922      -17.0105763765       25.5904458414  W2        8031            0.0000000000
     24092      8031  TIP3      H1              6.5190912922      -17.2845563765       25.4057858414  W2        8031            0.0000000000
     24093      8031  TIP3      H2              5.2340412922      -17.7529763765       26.0547058414  W2        8031            0.0000000000
     24094      8032  TIP3      OH2             4.2452612922       -0.2090963765        8.2634458414  W2        8032            0.0000000000
     24095      8032  TIP3      H1              3.9777212922        0.0771936235        9.1367558414  W2        8032            0.0000000000
     24096      8032  TIP3      H2              5.0165212922       -0.7551763765        8.4156958414  W2        8032            0.0000000000
     24097      8033  TIP3      OH2            14.0419612922      -17.6780463765       25.7727258414  W2        8033            0.0000000000
     24098      8033  TIP3      H1             14.1186812922      -18.1039763765       26.6264958414  W2        8033            0.0000000000
     24099      8033  TIP3      H2             14.9356212922      -17.6645763765       25.4300758414  W2        8033            0.0000000000
     24100      8034  TIP3      OH2            17.2180712922       -1.6054163765       24.4651458414  W2        8034            0.0000000000
     24101      8034  TIP3      H1             16.4362612922       -1.7916163765       23.9452058414  W2        8034            0.0000000000
     24102      8034  TIP3      H2             17.1460612922       -0.6759863765       24.6823958414  W2        8034            0.0000000000
     24103      8035  TIP3      OH2            31.6241112922       -7.7189763765       14.4958658414  W2        8035            0.0000000000
     24104      8035  TIP3      H1             31.7132212922       -6.7751563765       14.3635758414  W2        8035            0.0000000000
     24105      8035  TIP3      H2             30.9858712922       -7.9943363765       13.8378058414  W2        8035            0.0000000000
     24106      8036  TIP3      OH2            30.5572412922       -8.4639063765       17.9146858414  W2        8036            0.0000000000
     24107      8036  TIP3      H1             30.5189912922       -9.1102763765       18.6196458414  W2        8036            0.0000000000
     24108      8036  TIP3      H2             30.2348912922       -8.9304663765       17.1435558414  W2        8036            0.0000000000
     24109      8037  TIP3      OH2            22.9257412922       -8.8496963765       19.5076758414  W2        8037            0.0000000000
     24110      8037  TIP3      H1             22.9669512922       -9.4753663765       20.2309158414  W2        8037            0.0000000000
     24111      8037  TIP3      H2             23.6285112922       -8.2258363765       19.6897158414  W2        8037            0.0000000000
     24112      8038  TIP3      OH2            34.2632612922       -5.5248663765       16.2161958414  W2        8038            0.0000000000
     24113      8038  TIP3      H1             33.8225312922       -6.2452663765       16.6667558414  W2        8038            0.0000000000
     24114      8038  TIP3      H2             34.2502312922       -4.8041463765       16.8459658414  W2        8038            0.0000000000
     24115      8039  TIP3      OH2            23.8490512922       -4.3998063765       18.0425858414  W2        8039            0.0000000000
     24116      8039  TIP3      H1             23.4795712922       -5.2017563765       17.6730158414  W2        8039            0.0000000000
     24117      8039  TIP3      H2             24.7901612922       -4.5683163765       18.0889258414  W2        8039            0.0000000000
     24118      8040  TIP3      OH2            20.4591012922      -10.7395463765       13.4354658414  W2        8040            0.0000000000
     24119      8040  TIP3      H1             20.0114412922       -9.8936763765       13.4171158414  W2        8040            0.0000000000
     24120      8040  TIP3      H2             19.8982212922      -11.3191263765       12.9199758414  W2        8040            0.0000000000
     24121      8041  TIP3      OH2            21.1697112922       -8.5775863765       15.5612658414  W2        8041            0.0000000000
     24122      8041  TIP3      H1             21.3830612922       -9.3474263765       16.0885658414  W2        8041            0.0000000000
     24123      8041  TIP3      H2             21.9074712922       -8.4879163765       14.9580258414  W2        8041            0.0000000000
     24124      8042  TIP3      OH2            31.3748112922       -0.4206963765       16.4282358414  W2        8042            0.0000000000
     24125      8042  TIP3      H1             31.9944512922       -1.0972263765       16.1551558414  W2        8042            0.0000000000
     24126      8042  TIP3      H2             31.1665512922       -0.6386163765       17.3367258414  W2        8042            0.0000000000
     24127      8043  TIP3      OH2            28.9466812922       -6.0317663765       18.3207858414  W2        8043            0.0000000000
     24128      8043  TIP3      H1             29.2504712922       -6.7176263765       17.7261958414  W2        8043            0.0000000000
     24129      8043  TIP3      H2             29.6680812922       -5.9128963765       18.9385858414  W2        8043            0.0000000000
     24130      8044  TIP3      OH2            32.0873812922      -11.6375263765       18.6482658414  W2        8044            0.0000000000
     24131      8044  TIP3      H1             32.2299712922      -12.5838263765       18.6684258414  W2        8044            0.0000000000
     24132      8044  TIP3      H2             31.9812812922      -11.4305463765       17.7197558414  W2        8044            0.0000000000
     24133      8045  TIP3      OH2            25.2422112922      -13.5358863765       15.9207458414  W2        8045            0.0000000000
     24134      8045  TIP3      H1             25.2853212922      -12.6760363765       15.5023758414  W2        8045            0.0000000000
     24135      8045  TIP3      H2             24.7846212922      -14.0884163765       15.2870658414  W2        8045            0.0000000000
     24136      8046  TIP3      OH2            32.9644812922      -13.4053263765       14.3215758414  W2        8046            0.0000000000
     24137      8046  TIP3      H1             33.6109112922      -13.7340063765       14.9463358414  W2        8046            0.0000000000
     24138      8046  TIP3      H2             33.4744212922      -12.8874263765       13.6987158414  W2        8046            0.0000000000
     24139      8047  TIP3      OH2            21.8623612922      -11.1393063765       16.6828858414  W2        8047            0.0000000000
     24140      8047  TIP3      H1             22.5160212922      -11.6891363765       17.1148958414  W2        8047            0.0000000000
     24141      8047  TIP3      H2             21.8862912922      -11.4134063765       15.7660858414  W2        8047            0.0000000000
     24142      8048  TIP3      OH2            27.0188112922       -9.5891763765       15.8980358414  W2        8048            0.0000000000
     24143      8048  TIP3      H1             27.6349112922      -10.1156363765       16.4074358414  W2        8048            0.0000000000
     24144      8048  TIP3      H2             26.4326912922      -10.2293063765       15.4943958414  W2        8048            0.0000000000
     24145      8049  TIP3      OH2            24.0524012922      -14.6180463765       19.9948258414  W2        8049            0.0000000000
     24146      8049  TIP3      H1             23.8335712922      -14.0879863765       19.2284258414  W2        8049            0.0000000000
     24147      8049  TIP3      H2             23.3844912922      -14.3914963765       20.6419658414  W2        8049            0.0000000000
     24148      8050  TIP3      OH2            31.4213812922       -5.1179363765       13.5387358414  W2        8050            0.0000000000
     24149      8050  TIP3      H1             31.1258912922       -5.4407063765       12.6874258414  W2        8050            0.0000000000
     24150      8050  TIP3      H2             31.0971612922       -4.2182663765       13.5799958414  W2        8050            0.0000000000
     24151      8051  TIP3      OH2            26.6215412922       -6.9424763765       20.2821958414  W2        8051            0.0000000000
     24152      8051  TIP3      H1             25.8814512922       -6.3443263765       20.3857158414  W2        8051            0.0000000000
     24153      8051  TIP3      H2             27.3354912922       -6.3885163765       19.9665558414  W2        8051            0.0000000000
     24154      8052  TIP3      OH2            34.7283212922      -14.1143963765       16.3021658414  W2        8052            0.0000000000
     24155      8052  TIP3      H1             34.5131212922      -14.8800563765       16.8347658414  W2        8052            0.0000000000
     24156      8052  TIP3      H2             35.3840612922      -13.6419363765       16.8150158414  W2        8052            0.0000000000
     24157      8053  TIP3      OH2            23.6461312922      -12.7258663765       17.9470458414  W2        8053            0.0000000000
     24158      8053  TIP3      H1             24.2597612922      -12.0931063765       18.3202858414  W2        8053            0.0000000000
     24159      8053  TIP3      H2             24.1582012922      -13.1983663765       17.2907358414  W2        8053            0.0000000000
     24160      8054  TIP3      OH2            25.0289712922       -4.9781763765       21.0693458414  W2        8054            0.0000000000
     24161      8054  TIP3      H1             25.0237312922       -4.0988263765       20.6912758414  W2        8054            0.0000000000
     24162      8054  TIP3      H2             24.1753812922       -5.0617663765       21.4943358414  W2        8054            0.0000000000
     24163      8055  TIP3      OH2            21.1500612922       -5.3073863765       11.8512758414  W2        8055            0.0000000000
     24164      8055  TIP3      H1             20.8781512922       -5.0782863765       10.9625658414  W2        8055            0.0000000000
     24165      8055  TIP3      H2             21.1956312922       -4.4695063765       12.3118058414  W2        8055            0.0000000000
     24166      8056  TIP3      OH2            34.7750312922       -3.6857963765       18.5641258414  W2        8056            0.0000000000
     24167      8056  TIP3      H1             33.8334012922       -3.6274063765       18.7258158414  W2        8056            0.0000000000
     24168      8056  TIP3      H2             35.0516412922       -2.7797463765       18.4270958414  W2        8056            0.0000000000
     24169      8057  TIP3      OH2            35.0757312922      -15.3992663765       19.9815158414  W2        8057            0.0000000000
     24170      8057  TIP3      H1             34.3396512922      -14.7885563765       19.9436458414  W2        8057            0.0000000000
     24171      8057  TIP3      H2             35.7591312922      -14.9843663765       19.4551558414  W2        8057            0.0000000000
     24172      8058  TIP3      OH2            28.0788712922      -17.3125363765       17.4473158414  W2        8058            0.0000000000
     24173      8058  TIP3      H1             27.9612912922      -18.2609363765       17.3931458414  W2        8058            0.0000000000
     24174      8058  TIP3      H2             27.2238812922      -16.9799263765       17.7204258414  W2        8058            0.0000000000
     24175      8059  TIP3      OH2            33.0271512922       -1.9044463765       15.1892858414  W2        8059            0.0000000000
     24176      8059  TIP3      H1             33.4523812922       -2.6116563765       14.7042458414  W2        8059            0.0000000000
     24177      8059  TIP3      H2             33.3441512922       -1.1031763765       14.7725058414  W2        8059            0.0000000000
     24178      8060  TIP3      OH2            34.1868012922       -4.0035963765       13.6979458414  W2        8060            0.0000000000
     24179      8060  TIP3      H1             33.9292812922       -4.6935863765       13.0865358414  W2        8060            0.0000000000
     24180      8060  TIP3      H2             34.2578812922       -4.4464763765       14.5435358414  W2        8060            0.0000000000
     24181      8061  TIP3      OH2            35.8728212922       -5.4369263765       22.1752958414  W2        8061            0.0000000000
     24182      8061  TIP3      H1             36.0124512922       -6.0286763765       21.4359958414  W2        8061            0.0000000000
     24183      8061  TIP3      H2             36.0401012922       -4.5643363765       21.8191758414  W2        8061            0.0000000000
     24184      8062  TIP3      OH2            30.3453612922       -8.4749763765       11.9478958414  W2        8062            0.0000000000
     24185      8062  TIP3      H1             29.6339112922       -7.9400063765       11.5959458414  W2        8062            0.0000000000
     24186      8062  TIP3      H2             31.0363212922       -8.4197663765       11.2877858414  W2        8062            0.0000000000
     24187      8063  TIP3      OH2            30.3992812922      -10.0175463765        8.9863958414  W2        8063            0.0000000000
     24188      8063  TIP3      H1             31.1002712922       -9.9948563765        9.6377958414  W2        8063            0.0000000000
     24189      8063  TIP3      H2             30.7015712922      -10.6455763765        8.3303258414  W2        8063            0.0000000000
     24190      8064  TIP3      OH2            33.7511312922       -8.2656463765       12.8994858414  W2        8064            0.0000000000
     24191      8064  TIP3      H1             33.0192312922       -8.0372763765       13.4725458414  W2        8064            0.0000000000
     24192      8064  TIP3      H2             34.1983512922       -8.9793763765       13.3542358414  W2        8064            0.0000000000
     24193      8065  TIP3      OH2            33.6484812922      -10.0913863765       21.9671858414  W2        8065            0.0000000000
     24194      8065  TIP3      H1             33.7283912922       -9.3279463765       22.5390358414  W2        8065            0.0000000000
     24195      8065  TIP3      H2             33.0472512922       -9.8121463765       21.2766958414  W2        8065            0.0000000000
     24196      8066  TIP3      OH2            25.3965012922       -7.6350263765       14.7819858414  W2        8066            0.0000000000
     24197      8066  TIP3      H1             25.0660212922       -8.0056863765       13.9636858414  W2        8066            0.0000000000
     24198      8066  TIP3      H2             25.9849112922       -8.3056263765       15.1288158414  W2        8066            0.0000000000
     24199      8067  TIP3      OH2            26.7632512922       -4.2069663765       17.4632058414  W2        8067            0.0000000000
     24200      8067  TIP3      H1             26.6683812922       -4.7856563765       16.7066658414  W2        8067            0.0000000000
     24201      8067  TIP3      H2             27.4926112922       -4.5783963765       17.9594858414  W2        8067            0.0000000000
     24202      8068  TIP3      OH2            25.7630512922       -8.8664663765       18.4154858414  W2        8068            0.0000000000
     24203      8068  TIP3      H1             26.3283012922       -8.7450463765       17.6526058414  W2        8068            0.0000000000
     24204      8068  TIP3      H2             26.0819412922       -8.2289663765       19.0543358414  W2        8068            0.0000000000
     24205      8069  TIP3      OH2            32.0722712922       -3.3632763765       19.1495358414  W2        8069            0.0000000000
     24206      8069  TIP3      H1             31.8319312922       -2.7009663765       19.7974558414  W2        8069            0.0000000000
     24207      8069  TIP3      H2             31.8740912922       -4.1977563765       19.5744958414  W2        8069            0.0000000000
     24208      8070  TIP3      OH2            26.6431212922       -4.4671963765       23.1326758414  W2        8070            0.0000000000
     24209      8070  TIP3      H1             26.3318712922       -3.6848763765       23.5879958414  W2        8070            0.0000000000
     24210      8070  TIP3      H2             25.9931412922       -4.6202863765       22.4468758414  W2        8070            0.0000000000
     24211      8071  TIP3      OH2            32.6220812922       -9.1033563765       10.5846058414  W2        8071            0.0000000000
     24212      8071  TIP3      H1             33.2016312922       -8.9533263765       11.3314958414  W2        8071            0.0000000000
     24213      8071  TIP3      H2             33.0360812922       -8.6326163765        9.8612458414  W2        8071            0.0000000000
     24214      8072  TIP3      OH2            23.5631112922       -8.2690863765       22.3612458414  W2        8072            0.0000000000
     24215      8072  TIP3      H1             23.6334312922       -7.6184063765       23.0597458414  W2        8072            0.0000000000
     24216      8072  TIP3      H2             22.6723312922       -8.1663363765       22.0263358414  W2        8072            0.0000000000
     24217      8073  TIP3      OH2            30.3485712922       -2.3665063765       14.0199158414  W2        8073            0.0000000000
     24218      8073  TIP3      H1             30.8223312922       -2.0708763765       14.7973358414  W2        8073            0.0000000000
     24219      8073  TIP3      H2             29.7855012922       -1.6283463765       13.7868758414  W2        8073            0.0000000000
     24220      8074  TIP3      OH2            24.8827112922       -2.3956963765       23.8960558414  W2        8074            0.0000000000
     24221      8074  TIP3      H1             24.8902412922       -2.5317263765       22.9486058414  W2        8074            0.0000000000
     24222      8074  TIP3      H2             23.9667512922       -2.5128863765       24.1480558414  W2        8074            0.0000000000
     24223      8075  TIP3      OH2            36.3209212922      -17.3533163765       10.3975758414  W2        8075            0.0000000000
     24224      8075  TIP3      H1             35.4209912922      -17.2144163765       10.6926358414  W2        8075            0.0000000000
     24225      8075  TIP3      H2             36.5727612922      -16.5218563765        9.9957458414  W2        8075            0.0000000000
     24226      8076  TIP3      OH2            24.3867712922       -8.5655963765       12.3712658414  W2        8076            0.0000000000
     24227      8076  TIP3      H1             24.0949012922       -7.7974263765       11.8803958414  W2        8076            0.0000000000
     24228      8076  TIP3      H2             23.7122912922       -9.2249763765       12.2084058414  W2        8076            0.0000000000
     24229      8077  TIP3      OH2            20.4797812922       -6.2026763765       21.1862458414  W2        8077            0.0000000000
     24230      8077  TIP3      H1             19.9786212922       -6.2307363765       20.3712158414  W2        8077            0.0000000000
     24231      8077  TIP3      H2             20.4851512922       -7.1083563765       21.4959758414  W2        8077            0.0000000000
     24232      8078  TIP3      OH2            20.2300512922       -3.4222963765       18.0702658414  W2        8078            0.0000000000
     24233      8078  TIP3      H1             21.1761112922       -3.5665963765       18.0512158414  W2        8078            0.0000000000
     24234      8078  TIP3      H2             20.1176812922       -2.6380163765       18.6073858414  W2        8078            0.0000000000
     24235      8079  TIP3      OH2            29.4063012922       -3.1824063765       22.6287758414  W2        8079            0.0000000000
     24236      8079  TIP3      H1             29.4937612922       -2.3559463765       23.1036858414  W2        8079            0.0000000000
     24237      8079  TIP3      H2             28.5428112922       -3.5120263765       22.8777058414  W2        8079            0.0000000000
     24238      8080  TIP3      OH2            29.8208812922        0.5899636235       12.4348358414  W2        8080            0.0000000000
     24239      8080  TIP3      H1             29.7454812922        0.4686836235       11.4883558414  W2        8080            0.0000000000
     24240      8080  TIP3      H2             29.8537512922        1.5392336235       12.5532958414  W2        8080            0.0000000000
     24241      8081  TIP3      OH2            23.4742612922       -0.6213363765       14.2157358414  W2        8081            0.0000000000
     24242      8081  TIP3      H1             23.6263012922       -0.9692963765       15.0943858414  W2        8081            0.0000000000
     24243      8081  TIP3      H2             22.6233012922       -0.9776063765       13.9604558414  W2        8081            0.0000000000
     24244      8082  TIP3      OH2            32.9224812922       -0.2560163765        9.4370758414  W2        8082            0.0000000000
     24245      8082  TIP3      H1             33.2973212922       -1.0004063765        8.9663358414  W2        8082            0.0000000000
     24246      8082  TIP3      H2             32.9268512922       -0.5259563765       10.3554058414  W2        8082            0.0000000000
     24247      8083  TIP3      OH2            32.5912912922       -0.3303063765       12.1862958414  W2        8083            0.0000000000
     24248      8083  TIP3      H1             31.6562712922       -0.2301163765       12.3649958414  W2        8083            0.0000000000
     24249      8083  TIP3      H2             32.8714812922       -1.0397063765       12.7646158414  W2        8083            0.0000000000
     24250      8084  TIP3      OH2            35.5798812922      -11.2630763765       24.2328558414  W2        8084            0.0000000000
     24251      8084  TIP3      H1             35.1725612922      -10.7825163765       23.5121858414  W2        8084            0.0000000000
     24252      8084  TIP3      H2             35.6204512922      -12.1684763765       23.9249358414  W2        8084            0.0000000000
     24253      8085  TIP3      OH2            22.7288312922       -4.8791363765       22.2295258414  W2        8085            0.0000000000
     24254      8085  TIP3      H1             22.9449612922       -5.2405763765       23.0891058414  W2        8085            0.0000000000
     24255      8085  TIP3      H2             21.8733012922       -5.2537563765       22.0198758414  W2        8085            0.0000000000
     24256      8086  TIP3      OH2            25.3476312922      -16.4090863765       18.2249458414  W2        8086            0.0000000000
     24257      8086  TIP3      H1             24.4860012922      -16.4962663765       17.8172358414  W2        8086            0.0000000000
     24258      8086  TIP3      H2             25.3252012922      -15.5530763765       18.6527058414  W2        8086            0.0000000000
     24259      8087  TIP3      OH2            30.0104112922      -16.6870463765       21.5996458414  W2        8087            0.0000000000
     24260      8087  TIP3      H1             30.4307212922      -17.1023363765       22.3527058414  W2        8087            0.0000000000
     24261      8087  TIP3      H2             29.0773712922      -16.8657163765       21.7168458414  W2        8087            0.0000000000
     24262      8088  TIP3      OH2            33.3369012922      -12.9315263765       22.4530958414  W2        8088            0.0000000000
     24263      8088  TIP3      H1             32.8228512922      -13.0573063765       23.2506958414  W2        8088            0.0000000000
     24264      8088  TIP3      H2             33.1813712922      -12.0192163765       22.2087158414  W2        8088            0.0000000000
     24265      8089  TIP3      OH2            34.0993912922       -8.0705263765        8.2143958414  W2        8089            0.0000000000
     24266      8089  TIP3      H1             34.1414712922       -8.2931363765        7.2843958414  W2        8089            0.0000000000
     24267      8089  TIP3      H2             34.9486012922       -7.6718163765        8.4043858414  W2        8089            0.0000000000
     24268      8090  TIP3      OH2            29.6721412922      -14.1947063765        8.8847258414  W2        8090            0.0000000000
     24269      8090  TIP3      H1             29.4186212922      -14.1755463765        9.8075358414  W2        8090            0.0000000000
     24270      8090  TIP3      H2             29.4153512922      -15.0661663765        8.5833458414  W2        8090            0.0000000000
     24271      8091  TIP3      OH2            25.4386412922      -11.4436363765       19.3199658414  W2        8091            0.0000000000
     24272      8091  TIP3      H1             24.7968512922      -11.4839063765       20.0289758414  W2        8091            0.0000000000
     24273      8091  TIP3      H2             25.4758412922      -10.5171663765       19.0822658414  W2        8091            0.0000000000
     24274      8092  TIP3      OH2            25.4355512922      -11.2226263765       14.2319658414  W2        8092            0.0000000000
     24275      8092  TIP3      H1             24.5428412922      -11.5630163765       14.1733458414  W2        8092            0.0000000000
     24276      8092  TIP3      H2             25.8862112922      -11.5995363765       13.4762858414  W2        8092            0.0000000000
     24277      8093  TIP3      OH2            30.9711012922      -10.8065963765       13.0490458414  W2        8093            0.0000000000
     24278      8093  TIP3      H1             30.5621312922       -9.9917363765       12.7575258414  W2        8093            0.0000000000
     24279      8093  TIP3      H2             31.6917212922      -10.9465863765       12.4347558414  W2        8093            0.0000000000
     24280      8094  TIP3      OH2            30.0732612922      -10.6309563765       24.5371158414  W2        8094            0.0000000000
     24281      8094  TIP3      H1             29.5106412922      -11.3357963765       24.8578958414  W2        8094            0.0000000000
     24282      8094  TIP3      H2             30.8996012922      -10.7517663765       25.0048758414  W2        8094            0.0000000000
     24283      8095  TIP3      OH2            31.9758712922      -11.3605563765       15.8630158414  W2        8095            0.0000000000
     24284      8095  TIP3      H1             31.7803212922      -10.7548763765       15.1480758414  W2        8095            0.0000000000
     24285      8095  TIP3      H2             32.1571312922      -12.1940363765       15.4286458414  W2        8095            0.0000000000
     24286      8096  TIP3      OH2            23.1886912922      -11.1232863765       21.1871658414  W2        8096            0.0000000000
     24287      8096  TIP3      H1             23.1506312922      -10.7231263765       22.0558758414  W2        8096            0.0000000000
     24288      8096  TIP3      H2             22.6978012922      -11.9400463765       21.2774558414  W2        8096            0.0000000000
     24289      8097  TIP3      OH2            26.5544312922      -13.7490563765        7.9857658414  W2        8097            0.0000000000
     24290      8097  TIP3      H1             26.1235012922      -14.1940463765        8.7155058414  W2        8097            0.0000000000
     24291      8097  TIP3      H2             25.8363012922      -13.3774263765        7.4735158414  W2        8097            0.0000000000
     24292      8098  TIP3      OH2            19.7967712922      -14.0071063765       15.0376358414  W2        8098            0.0000000000
     24293      8098  TIP3      H1             20.4275412922      -14.0358963765       15.7570258414  W2        8098            0.0000000000
     24294      8098  TIP3      H2             20.2462012922      -14.4322363765       14.3072258414  W2        8098            0.0000000000
     24295      8099  TIP3      OH2            21.0709812922      -13.2609063765       10.4616758414  W2        8099            0.0000000000
     24296      8099  TIP3      H1             21.5451512922      -12.6699163765        9.8767658414  W2        8099            0.0000000000
     24297      8099  TIP3      H2             20.3536212922      -12.7306163765       10.8086858414  W2        8099            0.0000000000
     24298      8100  TIP3      OH2            31.2397912922       -9.7224263765       20.5342558414  W2        8100            0.0000000000
     24299      8100  TIP3      H1             31.5632712922      -10.3534563765       19.8913058414  W2        8100            0.0000000000
     24300      8100  TIP3      H2             30.7997212922      -10.2572063765       21.1949958414  W2        8100            0.0000000000
     24301      8101  TIP3      OH2            28.0170812922      -13.7948763765       15.3183758414  W2        8101            0.0000000000
     24302      8101  TIP3      H1             27.1061912922      -13.7381963765       15.6069758414  W2        8101            0.0000000000
     24303      8101  TIP3      H2             28.5223712922      -13.8553263765       16.1290958414  W2        8101            0.0000000000
     24304      8102  TIP3      OH2            22.8454212922      -12.1662463765       14.1451358414  W2        8102            0.0000000000
     24305      8102  TIP3      H1             21.9562212922      -12.0666963765       13.8050958414  W2        8102            0.0000000000
     24306      8102  TIP3      H2             23.1419112922      -13.0079463765       13.7989258414  W2        8102            0.0000000000
     24307      8103  TIP3      OH2            26.4986012922      -12.1659863765       11.8015958414  W2        8103            0.0000000000
     24308      8103  TIP3      H1             27.4301512922      -12.0369863765       11.9799058414  W2        8103            0.0000000000
     24309      8103  TIP3      H2             26.2836312922      -11.4965563765       11.1520658414  W2        8103            0.0000000000
     24310      8104  TIP3      OH2            32.4222712922      -14.5602463765       18.5825558414  W2        8104            0.0000000000
     24311      8104  TIP3      H1             31.7454312922      -14.4289363765       19.2465258414  W2        8104            0.0000000000
     24312      8104  TIP3      H2             31.9367612922      -14.7152963765       17.7723258414  W2        8104            0.0000000000
     24313      8105  TIP3      OH2            25.1726212922      -10.9717663765        9.3682058414  W2        8105            0.0000000000
     24314      8105  TIP3      H1             24.6301312922      -11.3513863765        8.6769658414  W2        8105            0.0000000000
     24315      8105  TIP3      H2             26.0061112922      -10.7772963765        8.9396158414  W2        8105            0.0000000000
     24316      8106  TIP3      OH2            35.7097812922        1.1112936235       24.8593158414  W2        8106            0.0000000000
     24317      8106  TIP3      H1             35.9096512922        1.5354836235       24.0248458414  W2        8106            0.0000000000
     24318      8106  TIP3      H2             36.3651512922        1.4551136235       25.4663558414  W2        8106            0.0000000000
     24319      8107  TIP3      OH2            23.3077612922       -6.4145763765       24.4673658414  W2        8107            0.0000000000
     24320      8107  TIP3      H1             24.0400012922       -6.1599863765       25.0288158414  W2        8107            0.0000000000
     24321      8107  TIP3      H2             22.5276312922       -6.2100363765       24.9829058414  W2        8107            0.0000000000
     24322      8108  TIP3      OH2            29.3370512922      -11.0075763765       17.2053358414  W2        8108            0.0000000000
     24323      8108  TIP3      H1             29.9013912922      -11.5539163765       16.6582958414  W2        8108            0.0000000000
     24324      8108  TIP3      H2             29.1893912922      -11.5293863765       17.9940958414  W2        8108            0.0000000000
     24325      8109  TIP3      OH2            24.3390212922      -14.8709663765       13.6238158414  W2        8109            0.0000000000
     24326      8109  TIP3      H1             24.0219712922      -15.7734363765       13.5883558414  W2        8109            0.0000000000
     24327      8109  TIP3      H2             25.1204312922      -14.8692263765       13.0709758414  W2        8109            0.0000000000
     24328      8110  TIP3      OH2            27.9636412922      -12.6189663765       19.6193758414  W2        8110            0.0000000000
     24329      8110  TIP3      H1             27.1281712922      -12.1650163765       19.7296158414  W2        8110            0.0000000000
     24330      8110  TIP3      H2             28.4877012922      -12.3431163765       20.3713658414  W2        8110            0.0000000000
     24331      8111  TIP3      OH2            28.5079012922       -6.4061963765       11.3040158414  W2        8111            0.0000000000
     24332      8111  TIP3      H1             27.7630012922       -6.9136663765       10.9818058414  W2        8111            0.0000000000
     24333      8111  TIP3      H2             28.3736212922       -6.3573963765       12.2504958414  W2        8111            0.0000000000
     24334      8112  TIP3      OH2            35.6577912922       -7.2733763765       20.0907758414  W2        8112            0.0000000000
     24335      8112  TIP3      H1             36.2996712922       -6.8167463765       19.5469958414  W2        8112            0.0000000000
     24336      8112  TIP3      H2             34.8274812922       -7.1601363765       19.6281858414  W2        8112            0.0000000000
     24337      8113  TIP3      OH2            32.4055812922      -13.5922063765        9.5032758414  W2        8113            0.0000000000
     24338      8113  TIP3      H1             31.4670012922      -13.4806463765        9.3521558414  W2        8113            0.0000000000
     24339      8113  TIP3      H2             32.7027912922      -12.7355163765        9.8098458414  W2        8113            0.0000000000
     24340      8114  TIP3      OH2            30.0271112922       -6.2218663765       22.5409258414  W2        8114            0.0000000000
     24341      8114  TIP3      H1             29.6817212922       -6.6036263765       23.3478858414  W2        8114            0.0000000000
     24342      8114  TIP3      H2             29.8271212922       -5.2885063765       22.6122158414  W2        8114            0.0000000000
     24343      8115  TIP3      OH2            33.1239312922      -11.7249363765       11.1640158414  W2        8115            0.0000000000
     24344      8115  TIP3      H1             34.0158312922      -11.8624363765       11.4831358414  W2        8115            0.0000000000
     24345      8115  TIP3      H2             33.1802912922      -10.9343263765       10.6273658414  W2        8115            0.0000000000
     24346      8116  TIP3      OH2            23.6327312922       -7.1111963765       17.0738058414  W2        8116            0.0000000000
     24347      8116  TIP3      H1             24.3774512922       -7.1136263765       16.4724558414  W2        8116            0.0000000000
     24348      8116  TIP3      H2             23.7103912922       -7.9348163765       17.5553158414  W2        8116            0.0000000000
     24349      8117  TIP3      OH2            30.6333112922       -4.9477663765       10.3294758414  W2        8117            0.0000000000
     24350      8117  TIP3      H1             30.3381512922       -4.1209763765       10.7109558414  W2        8117            0.0000000000
     24351      8117  TIP3      H2             29.9303112922       -5.5670763765       10.5256158414  W2        8117            0.0000000000
     24352      8118  TIP3      OH2            20.6407012922       -8.6505063765       22.3886558414  W2        8118            0.0000000000
     24353      8118  TIP3      H1             20.8635612922       -9.0685463765       23.2204058414  W2        8118            0.0000000000
     24354      8118  TIP3      H2             20.0387112922       -9.2630063765       21.9659358414  W2        8118            0.0000000000
     24355      8119  TIP3      OH2            27.6571912922       -9.1335163765       24.6016258414  W2        8119            0.0000000000
     24356      8119  TIP3      H1             27.3612712922       -9.2992163765       23.7065358414  W2        8119            0.0000000000
     24357      8119  TIP3      H2             28.5887112922       -9.3534863765       24.5910158414  W2        8119            0.0000000000
     24358      8120  TIP3      OH2            32.2774712922       -3.7603163765       22.4914258414  W2        8120            0.0000000000
     24359      8120  TIP3      H1             31.3769012922       -3.5770563765       22.2238158414  W2        8120            0.0000000000
     24360      8120  TIP3      H2             32.3115812922       -3.5013863765       23.4123058414  W2        8120            0.0000000000
     24361      8121  TIP3      OH2            36.3039712922       -2.7294863765       11.3238958414  W2        8121            0.0000000000
     24362      8121  TIP3      H1             35.9310812922       -3.5551063765       11.6329558414  W2        8121            0.0000000000
     24363      8121  TIP3      H2             36.5813212922       -2.9125463765       10.4262358414  W2        8121            0.0000000000
     24364      8122  TIP3      OH2            33.4643612922       -7.9215363765       18.3450858414  W2        8122            0.0000000000
     24365      8122  TIP3      H1             32.5360512922       -8.1533463765       18.3180158414  W2        8122            0.0000000000
     24366      8122  TIP3      H2             33.9154712922       -8.6985563765       18.0149658414  W2        8122            0.0000000000
     24367      8123  TIP3      OH2            26.0076712922       -3.5933763765       14.4779558414  W2        8123            0.0000000000
     24368      8123  TIP3      H1             26.5348912922       -2.8199363765       14.2778358414  W2        8123            0.0000000000
     24369      8123  TIP3      H2             25.1275212922       -3.3684563765       14.1763558414  W2        8123            0.0000000000
     24370      8124  TIP3      OH2            21.7624412922       -8.7309663765        9.0651958414  W2        8124            0.0000000000
     24371      8124  TIP3      H1             22.3784312922       -8.1042463765        9.4446758414  W2        8124            0.0000000000
     24372      8124  TIP3      H2             20.9007012922       -8.4149863765        9.3368458414  W2        8124            0.0000000000
     24373      8125  TIP3      OH2            27.4349012922       -5.9303863765       14.0543858414  W2        8125            0.0000000000
     24374      8125  TIP3      H1             27.1939012922       -5.0049463765       14.0959158414  W2        8125            0.0000000000
     24375      8125  TIP3      H2             26.6942612922       -6.3892563765       14.4507758414  W2        8125            0.0000000000
     24376      8126  TIP3      OH2            27.9495612922       -1.7810263765       20.3694958414  W2        8126            0.0000000000
     24377      8126  TIP3      H1             28.3120312922       -0.9264663765       20.1359358414  W2        8126            0.0000000000
     24378      8126  TIP3      H2             28.4810812922       -2.0728663765       21.1101258414  W2        8126            0.0000000000
     24379      8127  TIP3      OH2            26.1179812922       -0.9086263765       13.5996058414  W2        8127            0.0000000000
     24380      8127  TIP3      H1             25.1680312922       -0.8028863765       13.6509358414  W2        8127            0.0000000000
     24381      8127  TIP3      H2             26.4697912922       -0.0878863765       13.9443558414  W2        8127            0.0000000000
     24382      8128  TIP3      OH2            31.4936412922       -5.6819563765       20.0700558414  W2        8128            0.0000000000
     24383      8128  TIP3      H1             31.0677712922       -5.9097863765       20.8964558414  W2        8128            0.0000000000
     24384      8128  TIP3      H2             32.0742212922       -6.4207763765       19.8875858414  W2        8128            0.0000000000
     24385      8129  TIP3      OH2            33.6965312922       -4.7529063765        9.1439558414  W2        8129            0.0000000000
     24386      8129  TIP3      H1             34.0498412922       -5.1329263765        9.9483058414  W2        8129            0.0000000000
     24387      8129  TIP3      H2             32.7478812922       -4.8464263765        9.2308858414  W2        8129            0.0000000000
     24388      8130  TIP3      OH2            34.1520612922       -1.1300063765       22.5395358414  W2        8130            0.0000000000
     24389      8130  TIP3      H1             33.5503812922       -1.6857163765       22.0441658414  W2        8130            0.0000000000
     24390      8130  TIP3      H2             34.4334312922       -0.4630263765       21.9132758414  W2        8130            0.0000000000
     24391      8131  TIP3      OH2            22.2746512922      -13.8972363765       21.9467958414  W2        8131            0.0000000000
     24392      8131  TIP3      H1             21.3818812922      -13.5586963765       21.8791958414  W2        8131            0.0000000000
     24393      8131  TIP3      H2             22.1759312922      -14.7526263765       22.3648758414  W2        8131            0.0000000000
     24394      8132  TIP3      OH2            34.5624612922       -6.0807063765       11.3707458414  W2        8132            0.0000000000
     24395      8132  TIP3      H1             34.2852212922       -6.8087763765       11.9268558414  W2        8132            0.0000000000
     24396      8132  TIP3      H2             35.4897612922       -5.9615063765       11.5760058414  W2        8132            0.0000000000
     24397      8133  TIP3      OH2            21.9258512922       -2.0927963765       20.3817358414  W2        8133            0.0000000000
     24398      8133  TIP3      H1             22.1428812922       -3.0245563765       20.3507058414  W2        8133            0.0000000000
     24399      8133  TIP3      H2             22.1722012922       -1.8182963765       21.2650158414  W2        8133            0.0000000000
     24400      8134  TIP3      OH2            27.7873112922       -3.6412963765        7.5909558414  W2        8134            0.0000000000
     24401      8134  TIP3      H1             28.0262912922       -4.3894863765        7.0438458414  W2        8134            0.0000000000
     24402      8134  TIP3      H2             27.5184412922       -4.0291263765        8.4237358414  W2        8134            0.0000000000
     24403      8135  TIP3      OH2            26.7243712922       -4.0709163765       10.0472158414  W2        8135            0.0000000000
     24404      8135  TIP3      H1             26.8711712922       -4.5909363765       10.8373058414  W2        8135            0.0000000000
     24405      8135  TIP3      H2             26.7215412922       -3.1641563765       10.3538058414  W2        8135            0.0000000000
     24406      8136  TIP3      OH2            23.1774812922       -6.8185863765       10.5577558414  W2        8136            0.0000000000
     24407      8136  TIP3      H1             22.4914112922       -6.4663363765       11.1247258414  W2        8136            0.0000000000
     24408      8136  TIP3      H2             23.7002712922       -6.0556263765       10.3111858414  W2        8136            0.0000000000
     24409      8137  TIP3      OH2            31.0089912922      -14.1562063765       20.8366558414  W2        8137            0.0000000000
     24410      8137  TIP3      H1             31.7077812922      -14.0823363765       21.4866258414  W2        8137            0.0000000000
     24411      8137  TIP3      H2             30.6281312922      -15.0207063765       20.9909458414  W2        8137            0.0000000000
     24412      8138  TIP3      OH2            31.7934812922      -14.5040363765       11.9338858414  W2        8138            0.0000000000
     24413      8138  TIP3      H1             32.0133112922      -14.0324963765       11.1304258414  W2        8138            0.0000000000
     24414      8138  TIP3      H2             32.3518812922      -14.1097763765       12.6039458414  W2        8138            0.0000000000
     24415      8139  TIP3      OH2            29.4620912922       -2.3735563765       10.7966358414  W2        8139            0.0000000000
     24416      8139  TIP3      H1             28.6457012922       -1.8765863765       10.8490658414  W2        8139            0.0000000000
     24417      8139  TIP3      H2             29.9917212922       -1.8982063765       10.1565158414  W2        8139            0.0000000000
     24418      8140  TIP3      OH2            28.9934712922      -12.7761563765       12.7687258414  W2        8140            0.0000000000
     24419      8140  TIP3      H1             29.8057312922      -12.2718363765       12.8148958414  W2        8140            0.0000000000
     24420      8140  TIP3      H2             28.7487712922      -12.9211863765       13.6826858414  W2        8140            0.0000000000
     24421      8141  TIP3      OH2            29.5291112922      -11.7898863765       21.9533858414  W2        8141            0.0000000000
     24422      8141  TIP3      H1             29.6481412922      -11.2163463765       22.7104258414  W2        8141            0.0000000000
     24423      8141  TIP3      H2             30.1845712922      -12.4779463765       22.0681658414  W2        8141            0.0000000000
     24424      8142  TIP3      OH2            29.8771412922      -15.6948563765       13.7068358414  W2        8142            0.0000000000
     24425      8142  TIP3      H1             29.5304912922      -15.0777963765       14.3512658414  W2        8142            0.0000000000
     24426      8142  TIP3      H2             30.5358312922      -15.1942863765       13.2253858414  W2        8142            0.0000000000
     24427      8143  TIP3      OH2            26.8004012922       -1.3298363765       10.7783258414  W2        8143            0.0000000000
     24428      8143  TIP3      H1             26.9612712922       -0.5300863765       10.2775858414  W2        8143            0.0000000000
     24429      8143  TIP3      H2             26.6031812922       -1.0232363765       11.6633858414  W2        8143            0.0000000000
     24430      8144  TIP3      OH2            25.5348412922      -14.6319163765       10.3940858414  W2        8144            0.0000000000
     24431      8144  TIP3      H1             25.4513212922      -13.7436063765       10.7407258414  W2        8144            0.0000000000
     24432      8144  TIP3      H2             26.4248712922      -14.8972463765       10.6257658414  W2        8144            0.0000000000
     24433      8145  TIP3      OH2            35.7336912922      -13.8828563765       22.7883558414  W2        8145            0.0000000000
     24434      8145  TIP3      H1             34.8172712922      -13.6206863765       22.7007258414  W2        8145            0.0000000000
     24435      8145  TIP3      H2             36.0691912922      -13.8859563765       21.8918858414  W2        8145            0.0000000000
     24436      8146  TIP3      OH2            34.3357912922      -10.1327563765       16.8840858414  W2        8146            0.0000000000
     24437      8146  TIP3      H1             33.5382312922      -10.5477363765       16.5555858414  W2        8146            0.0000000000
     24438      8146  TIP3      H2             34.7809012922      -10.8233863765       17.3751358414  W2        8146            0.0000000000
     24439      8147  TIP3      OH2            23.7933712922       -4.2046963765        9.4545358414  W2        8147            0.0000000000
     24440      8147  TIP3      H1             24.3855212922       -3.5052163765        9.7307758414  W2        8147            0.0000000000
     24441      8147  TIP3      H2             24.2526712922       -4.6377463765        8.7349958414  W2        8147            0.0000000000
     24442      8148  TIP3      OH2            22.1092912922      -11.5403963765        8.5704758414  W2        8148            0.0000000000
     24443      8148  TIP3      H1             22.0645512922      -10.6010863765        8.7491758414  W2        8148            0.0000000000
     24444      8148  TIP3      H2             21.2216112922      -11.7759063765        8.3006858414  W2        8148            0.0000000000
     24445      8149  TIP3      OH2            35.4222512922       -0.8765063765       18.5064358414  W2        8149            0.0000000000
     24446      8149  TIP3      H1             35.2666812922       -0.1980663765       17.8493658414  W2        8149            0.0000000000
     24447      8149  TIP3      H2             36.3548912922       -0.8045763765       18.7094958414  W2        8149            0.0000000000
     24448      8150  TIP3      OH2            22.9174912922      -16.7587363765       17.2435758414  W2        8150            0.0000000000
     24449      8150  TIP3      H1             22.6884712922      -16.6994863765       16.3160758414  W2        8150            0.0000000000
     24450      8150  TIP3      H2             22.4748312922      -17.5501863765       17.5499858414  W2        8150            0.0000000000
     24451      8151  TIP3      OH2            21.8478212922       -2.8180263765       13.4041558414  W2        8151            0.0000000000
     24452      8151  TIP3      H1             21.0156812922       -2.3457563765       13.4312958414  W2        8151            0.0000000000
     24453      8151  TIP3      H2             22.3936512922       -2.3082663765       12.8054658414  W2        8151            0.0000000000
     24454      8152  TIP3      OH2            21.1361912922       -0.2056563765       24.7339558414  W2        8152            0.0000000000
     24455      8152  TIP3      H1             21.6764112922       -0.4222563765       25.4938758414  W2        8152            0.0000000000
     24456      8152  TIP3      H2             20.6549912922       -1.0110563765       24.5442058414  W2        8152            0.0000000000
     24457      8153  TIP3      OH2            25.7335312922       -1.2862163765       26.3543758414  W2        8153            0.0000000000
     24458      8153  TIP3      H1             26.5012512922       -1.7451363765       26.6952958414  W2        8153            0.0000000000
     24459      8153  TIP3      H2             25.7121512922       -1.5122363765       25.4244958414  W2        8153            0.0000000000
     24460      8154  TIP3      OH2            29.8254912922       -1.7781563765        7.7295558414  W2        8154            0.0000000000
     24461      8154  TIP3      H1             29.1815912922       -2.4092963765        8.0509258414  W2        8154            0.0000000000
     24462      8154  TIP3      H2             30.5873212922       -2.3093563765        7.4979058414  W2        8154            0.0000000000
     24463      8155  TIP3      OH2            32.3104012922       -2.9061063765       25.0835258414  W2        8155            0.0000000000
     24464      8155  TIP3      H1             31.9593512922       -3.7628063765       25.3265658414  W2        8155            0.0000000000
     24465      8155  TIP3      H2             33.0367212922       -2.7634363765       25.6904258414  W2        8155            0.0000000000
     24466      8156  TIP3      OH2            34.4297812922       -1.9611663765        7.9633558414  W2        8156            0.0000000000
     24467      8156  TIP3      H1             34.7128212922       -2.7556463765        8.4160458414  W2        8156            0.0000000000
     24468      8156  TIP3      H2             35.1695712922       -1.7280663765        7.4024658414  W2        8156            0.0000000000
     24469      8157  TIP3      OH2            21.0431412922       -6.3952463765       25.6883858414  W2        8157            0.0000000000
     24470      8157  TIP3      H1             21.1871912922       -7.2971763765       25.4020558414  W2        8157            0.0000000000
     24471      8157  TIP3      H2             20.2708812922       -6.1090363765       25.2006158414  W2        8157            0.0000000000
     24472      8158  TIP3      OH2            25.3845112922       -6.0516763765        7.8208458414  W2        8158            0.0000000000
     24473      8158  TIP3      H1             25.4489212922       -6.8457163765        8.3514858414  W2        8158            0.0000000000
     24474      8158  TIP3      H2             26.0374312922       -6.1703963765        7.1310458414  W2        8158            0.0000000000
     24475      8159  TIP3      OH2            27.6987512922       -6.4254363765       25.1210258414  W2        8159            0.0000000000
     24476      8159  TIP3      H1             27.3701312922       -6.1546263765       24.2637658414  W2        8159            0.0000000000
     24477      8159  TIP3      H2             27.8505712922       -7.3664563765       25.0335258414  W2        8159            0.0000000000
     24478      8160  TIP3      OH2            30.7368512922       -5.0045063765        7.5566458414  W2        8160            0.0000000000
     24479      8160  TIP3      H1             30.4682612922       -4.8242963765        8.4575358414  W2        8160            0.0000000000
     24480      8160  TIP3      H2             30.5304112922       -5.9298863765        7.4252258414  W2        8160            0.0000000000
     24481      8161  TIP3      OH2            33.4332712922       -6.5097063765       22.5042558414  W2        8161            0.0000000000
     24482      8161  TIP3      H1             34.1787512922       -5.9213363765       22.3846558414  W2        8161            0.0000000000
     24483      8161  TIP3      H2             32.6759512922       -5.9277363765       22.5675658414  W2        8161            0.0000000000
     24484      8162  TIP3      OH2            21.8757912922       -9.1949163765       25.1083158414  W2        8162            0.0000000000
     24485      8162  TIP3      H1             22.2839112922      -10.0522563765       24.9873758414  W2        8162            0.0000000000
     24486      8162  TIP3      H2             21.6155512922       -9.1807863765       26.0293458414  W2        8162            0.0000000000
     24487      8163  TIP3      OH2            26.5338912922       -8.0790563765       10.1266458414  W2        8163            0.0000000000
     24488      8163  TIP3      H1             26.0740912922       -8.5632263765       10.8124958414  W2        8163            0.0000000000
     24489      8163  TIP3      H2             26.7887612922       -8.7475163765        9.4906958414  W2        8163            0.0000000000
     24490      8164  TIP3      OH2            25.8228212922      -10.1863463765       22.4826058414  W2        8164            0.0000000000
     24491      8164  TIP3      H1             25.2044312922       -9.5116863765       22.7630758414  W2        8164            0.0000000000
     24492      8164  TIP3      H2             26.1669412922       -9.8649563765       21.6492258414  W2        8164            0.0000000000
     24493      8165  TIP3      OH2            27.6049312922       -9.8358763765        8.3889658414  W2        8165            0.0000000000
     24494      8165  TIP3      H1             27.4244312922       -9.9907563765        7.4617958414  W2        8165            0.0000000000
     24495      8165  TIP3      H2             28.5549812922       -9.7280063765        8.4337558414  W2        8165            0.0000000000
     24496      8166  TIP3      OH2            30.8426412922       -7.7148163765       25.7600858414  W2        8166            0.0000000000
     24497      8166  TIP3      H1             31.7957612922       -7.6309063765       25.7326858414  W2        8166            0.0000000000
     24498      8166  TIP3      H2             30.6821012922       -8.4266363765       26.3795758414  W2        8166            0.0000000000
     24499      8167  TIP3      OH2            26.1621912922      -12.8312663765       23.5649158414  W2        8167            0.0000000000
     24500      8167  TIP3      H1             26.3122812922      -13.5601363765       22.9628858414  W2        8167            0.0000000000
     24501      8167  TIP3      H2             26.1644312922      -12.0540963765       23.0061358414  W2        8167            0.0000000000
     24502      8168  TIP3      OH2            26.5747612922      -14.4616863765       21.0576558414  W2        8168            0.0000000000
     24503      8168  TIP3      H1             27.1105112922      -14.0100163765       20.4055858414  W2        8168            0.0000000000
     24504      8168  TIP3      H2             25.7227212922      -14.5697063765       20.6350658414  W2        8168            0.0000000000
     24505      8169  TIP3      OH2            28.1566012922       -9.0220663765       21.2971758414  W2        8169            0.0000000000
     24506      8169  TIP3      H1             28.9070812922       -9.1783163765       20.7239558414  W2        8169            0.0000000000
     24507      8169  TIP3      H2             27.8174312922       -8.1704063765       21.0217258414  W2        8169            0.0000000000
     24508      8170  TIP3      OH2            32.5722212922      -11.2068863765       26.3257058414  W2        8170            0.0000000000
     24509      8170  TIP3      H1             32.7643512922      -12.1379463765       26.2141558414  W2        8170            0.0000000000
     24510      8170  TIP3      H2             33.4298512922      -10.7819363765       26.3152458414  W2        8170            0.0000000000
     24511      8171  TIP3      OH2            33.8889412922       -8.4183663765       24.4029758414  W2        8171            0.0000000000
     24512      8171  TIP3      H1             33.6074412922       -7.7089063765       23.8253558414  W2        8171            0.0000000000
     24513      8171  TIP3      H2             34.8313712922       -8.4910663765       24.2520958414  W2        8171            0.0000000000
     24514      8172  TIP3      OH2            24.6408212922      -11.6329163765       25.4764758414  W2        8172            0.0000000000
     24515      8172  TIP3      H1             23.8737212922      -12.1654363765       25.2662358414  W2        8172            0.0000000000
     24516      8172  TIP3      H2             25.3197212922      -11.9428763765       24.8771058414  W2        8172            0.0000000000
     24517      8173  TIP3      OH2            27.3803112922      -17.0051163765       21.4890158414  W2        8173            0.0000000000
     24518      8173  TIP3      H1             27.2822712922      -16.0587963765       21.3836358414  W2        8173            0.0000000000
     24519      8173  TIP3      H2             26.6379312922      -17.3777363765       21.0133658414  W2        8173            0.0000000000
     24520      8174  TIP3      OH2            28.6443612922      -12.6835763765       25.0528558414  W2        8174            0.0000000000
     24521      8174  TIP3      H1             28.4089012922      -12.9029063765       25.9543458414  W2        8174            0.0000000000
     24522      8174  TIP3      H2             27.8610512922      -12.8904563765       24.5431058414  W2        8174            0.0000000000
     24523      8175  TIP3      OH2            31.3600212922      -13.5562263765       24.1282058414  W2        8175            0.0000000000
     24524      8175  TIP3      H1             30.4125612922      -13.5242563765       24.2605358414  W2        8175            0.0000000000
     24525      8175  TIP3      H2             31.6726912922      -14.1815163765       24.7820258414  W2        8175            0.0000000000
     24526      8176  TIP3      OH2            32.9941712922      -14.9221163765       26.1333958414  W2        8176            0.0000000000
     24527      8176  TIP3      H1             32.8973512922      -15.8743863765       26.1275858414  W2        8176            0.0000000000
     24528      8176  TIP3      H2             32.6724812922      -14.6534363765       26.9939458414  W2        8176            0.0000000000
     24529      8177  TIP3      OH2            22.8211012922      -13.7125363765       25.1809458414  W2        8177            0.0000000000
     24530      8177  TIP3      H1             23.0328412922      -14.4189263765       24.5706958414  W2        8177            0.0000000000
     24531      8177  TIP3      H2             22.7098512922      -14.1499363765       26.0250658414  W2        8177            0.0000000000
     24532      8178  TIP3      OH2            27.6021212922      -17.7113763765       24.1602958414  W2        8178            0.0000000000
     24533      8178  TIP3      H1             28.3139612922      -18.3511563765       24.1462058414  W2        8178            0.0000000000
     24534      8178  TIP3      H2             27.5011612922      -17.4445463765       23.2466058414  W2        8178            0.0000000000
     24535      8179  TIP3      OH2            27.9558712922      -16.0285363765       26.2139258414  W2        8179            0.0000000000
     24536      8179  TIP3      H1             27.8240912922      -16.5041563765       25.3937758414  W2        8179            0.0000000000
     24537      8179  TIP3      H2             27.3566112922      -15.2841763765       26.1586358414  W2        8179            0.0000000000
     24538      8180  TIP3      OH2            27.5021012922        0.8544936235        9.3903258414  W2        8180            0.0000000000
     24539      8180  TIP3      H1             28.4351712922        1.0123636235        9.5341658414  W2        8180            0.0000000000
     24540      8180  TIP3      H2             27.2379812922        1.5297936235        8.7654758414  W2        8180            0.0000000000
     24541      8181  TIP3      OH2            21.0705912922       -4.5091263765        8.8731358414  W2        8181            0.0000000000
     24542      8181  TIP3      H1             21.9845112922       -4.4302363765        9.1465258414  W2        8181            0.0000000000
     24543      8181  TIP3      H2             21.0779012922       -5.1961663765        8.2066958414  W2        8181            0.0000000000
     24544      8182  TIP3      OH2            19.7196512922        0.8837236235       13.9505258414  W2        8182            0.0000000000
     24545      8182  TIP3      H1             19.0723612922        0.4218936235       13.4176458414  W2        8182            0.0000000000
     24546      8182  TIP3      H2             20.0741112922        0.2120536235       14.5331458414  W2        8182            0.0000000000
     24547      8183  TIP3      OH2            20.5895712922       -1.0355763765       15.7551458414  W2        8183            0.0000000000
     24548      8183  TIP3      H1             20.2552512922       -1.9158463765       15.9271658414  W2        8183            0.0000000000
     24549      8183  TIP3      H2             20.8118112922       -0.6900763765       16.6197058414  W2        8183            0.0000000000
     24550      8184  TIP3      OH2            36.1520712922       -4.8690163765       26.2955658414  W2        8184            0.0000000000
     24551      8184  TIP3      H1             35.2861812922       -4.9740463765       26.6897958414  W2        8184            0.0000000000
     24552      8184  TIP3      H2             36.5286612922       -4.1106863765       26.7420358414  W2        8184            0.0000000000
     24553      8185  TIP3      OH2            36.0929512922       -2.8964063765       20.8879858414  W2        8185            0.0000000000
     24554      8185  TIP3      H1             35.4454812922       -2.5712563765       21.5135058414  W2        8185            0.0000000000
     24555      8185  TIP3      H2             35.5753512922       -3.3366363765       20.2138158414  W2        8185            0.0000000000
     24556      8186  TIP3      OH2            36.4648112922      -11.4184963765        8.5752258414  W2        8186            0.0000000000
     24557      8186  TIP3      H1             36.5612512922      -10.7517963765        7.8951958414  W2        8186            0.0000000000
     24558      8186  TIP3      H2             36.3247712922      -12.2338663765        8.0937758414  W2        8186            0.0000000000
     24559      8187  TIP3      OH2            35.6342812922      -10.0382563765       14.1962558414  W2        8187            0.0000000000
     24560      8187  TIP3      H1             35.4841612922      -10.9833963765       14.1760358414  W2        8187            0.0000000000
     24561      8187  TIP3      H2             35.2807312922       -9.7571163765       15.0401658414  W2        8187            0.0000000000
     24562      8188  TIP3      OH2            20.6695212922       -7.9600363765       18.2066358414  W2        8188            0.0000000000
     24563      8188  TIP3      H1             20.8538112922       -8.0418663765       17.2709258414  W2        8188            0.0000000000
     24564      8188  TIP3      H2             21.5188112922       -8.0843363765       18.6302758414  W2        8188            0.0000000000
     24565      8189  TIP3      OH2            36.4905712922       -8.0679263765       23.8350858414  W2        8189            0.0000000000
     24566      8189  TIP3      H1             37.0733012922       -8.8026963765       24.0268058414  W2        8189            0.0000000000
     24567      8189  TIP3      H2             37.0545012922       -7.2958963765       23.8816658414  W2        8189            0.0000000000
     24568      8190  TIP3      OH2            35.7121912922      -14.0105163765        7.6927758414  W2        8190            0.0000000000
     24569      8190  TIP3      H1             36.3227712922      -14.3818363765        8.3295958414  W2        8190            0.0000000000
     24570      8190  TIP3      H2             34.8753412922      -14.4318263765        7.8887758414  W2        8190            0.0000000000
     24571      8191  TIP3      OH2            35.3447612922      -12.4556763765       12.6587658414  W2        8191            0.0000000000
     24572      8191  TIP3      H1             35.6244712922      -13.3626363765       12.7829358414  W2        8191            0.0000000000
     24573      8191  TIP3      H2             36.1039312922      -12.0215263765       12.2696858414  W2        8191            0.0000000000
     24574      8192  TIP3      OH2            35.9565912922      -11.8739363765       18.0946558414  W2        8192            0.0000000000
     24575      8192  TIP3      H1             36.8893912922      -11.6619463765       18.0602558414  W2        8192            0.0000000000
     24576      8192  TIP3      H2             35.7213412922      -11.7727263765       19.0169558414  W2        8192            0.0000000000
     24577      8193  TIP3      OH2            35.9857812922      -11.1374063765       20.8705958414  W2        8193            0.0000000000
     24578      8193  TIP3      H1             35.1429112922      -10.8693663765       21.2365758414  W2        8193            0.0000000000
     24579      8193  TIP3      H2             36.4282112922      -10.3152163765       20.6597058414  W2        8193            0.0000000000
     24580      8194  TIP3      OH2            20.2670012922      -12.6895363765       24.3475158414  W2        8194            0.0000000000
     24581      8194  TIP3      H1             21.1864912922      -12.8117063765       24.5838258414  W2        8194            0.0000000000
     24582      8194  TIP3      H2             19.8174512922      -13.4395663765       24.7368658414  W2        8194            0.0000000000
     24583      8195  TIP3      OH2            35.9582412922      -15.1927463765       12.7069658414  W2        8195            0.0000000000
     24584      8195  TIP3      H1             36.1407412922      -15.6415963765       13.5324658414  W2        8195            0.0000000000
     24585      8195  TIP3      H2             35.3585312922      -15.7773063765       12.2434258414  W2        8195            0.0000000000
     24586      8196  TIP3      OH2            21.4882512922      -14.3773763765       17.2388058414  W2        8196            0.0000000000
     24587      8196  TIP3      H1             21.9334112922      -15.1691263765       17.5407758414  W2        8196            0.0000000000
     24588      8196  TIP3      H2             21.9545512922      -13.6608563765       17.6693658414  W2        8196            0.0000000000
     24589      8197  TIP3      OH2            19.7922812922      -11.3780763765       18.3078258414  W2        8197            0.0000000000
     24590      8197  TIP3      H1             20.2842612922      -11.5990263765       17.5170258414  W2        8197            0.0000000000
     24591      8197  TIP3      H2             20.1543712922      -10.5377363765       18.5887758414  W2        8197            0.0000000000
     24592      8198  TIP3      OH2            20.1059312922      -15.1201663765       12.3620658414  W2        8198            0.0000000000
     24593      8198  TIP3      H1             19.1807712922      -14.9115063765       12.2326158414  W2        8198            0.0000000000
     24594      8198  TIP3      H2             20.5599212922      -14.6360863765       11.6722958414  W2        8198            0.0000000000
     24595      8199  TIP3      OH2            34.8766512922       -0.1359963765       14.3078058414  W2        8199            0.0000000000
     24596      8199  TIP3      H1             35.5289412922       -0.4837863765       13.6997158414  W2        8199            0.0000000000
     24597      8199  TIP3      H2             35.3870312922        0.3523236235       14.9537758414  W2        8199            0.0000000000
     24598      8200  TIP3      OH2            20.0694712922      -16.3822663765       20.7063158414  W2        8200            0.0000000000
     24599      8200  TIP3      H1             19.4045212922      -16.6282363765       21.3494058414  W2        8200            0.0000000000
     24600      8200  TIP3      H2             19.6266012922      -15.7602263765       20.1291158414  W2        8200            0.0000000000
     24601      8201  TIP3      OH2            22.2614012922       -3.2068563765       24.8508958414  W2        8201            0.0000000000
     24602      8201  TIP3      H1             21.4406512922       -3.0322063765       24.3903658414  W2        8201            0.0000000000
     24603      8201  TIP3      H2             22.0091812922       -3.2803863765       25.7713358414  W2        8201            0.0000000000
     24604      8202  TIP3      OH2            25.2156912922       -2.2327363765       21.1092958414  W2        8202            0.0000000000
     24605      8202  TIP3      H1             24.7908012922       -1.4228863765       20.8267558414  W2        8202            0.0000000000
     24606      8202  TIP3      H2             26.1199712922       -2.1473263765       20.8072758414  W2        8202            0.0000000000
     24607      8203  TIP3      OH2            29.5268312922       -0.8337363765       24.0686658414  W2        8203            0.0000000000
     24608      8203  TIP3      H1             29.7115812922       -1.1671263765       24.9466958414  W2        8203            0.0000000000
     24609      8203  TIP3      H2             30.3732812922       -0.5238763765       23.7465858414  W2        8203            0.0000000000
     24610      8204  TIP3      OH2            31.8718712922        0.4521536235       23.3128058414  W2        8204            0.0000000000
     24611      8204  TIP3      H1             32.5487612922       -0.1806163765       23.0727258414  W2        8204            0.0000000000
     24612      8204  TIP3      H2             32.1937512922        0.8532036235       24.1201358414  W2        8204            0.0000000000
     24613      8205  TIP3      OH2            22.6173612922        1.0236536235       21.1568258414  W2        8205            0.0000000000
     24614      8205  TIP3      H1             21.8970012922        1.4637536235       20.7055958414  W2        8205            0.0000000000
     24615      8205  TIP3      H2             22.2517612922        0.7731236235       22.0052258414  W2        8205            0.0000000000
     24616      8206  TIP3      OH2            25.0846212922        0.6240436235       20.1865458414  W2        8206            0.0000000000
     24617      8206  TIP3      H1             24.2198412922        0.6958936235       20.5905558414  W2        8206            0.0000000000
     24618      8206  TIP3      H2             25.0295212922        1.1707736235       19.4027958414  W2        8206            0.0000000000
     24619      8207  TIP3      OH2            29.7951812922        0.5119336235       19.3621458414  W2        8207            0.0000000000
     24620      8207  TIP3      H1             29.3385812922        1.0409036235       18.7079858414  W2        8207            0.0000000000
     24621      8207  TIP3      H2             29.9579812922        1.1150736235       20.0873758414  W2        8207            0.0000000000
     24622      8208  TIP3      OH2            32.1228112922       -0.6101063765       20.3071758414  W2        8208            0.0000000000
     24623      8208  TIP3      H1             31.2181812922       -0.4450863765       20.0413858414  W2        8208            0.0000000000
     24624      8208  TIP3      H2             32.5516712922        0.2431136235       20.2415158414  W2        8208            0.0000000000
     24625      8209  TIP3      OH2            34.7270012922        0.9598036235       20.6019558414  W2        8209            0.0000000000
     24626      8209  TIP3      H1             34.5452012922        1.8756936235       20.3914458414  W2        8209            0.0000000000
     24627      8209  TIP3      H2             34.9037812922        0.5495136235       19.7554158414  W2        8209            0.0000000000
     24628      8210  TIP3      OH2            22.0321712922       -0.3530963765       18.0670058414  W2        8210            0.0000000000
     24629      8210  TIP3      H1             22.0137712922       -0.7785863765       18.9242358414  W2        8210            0.0000000000
     24630      8210  TIP3      H2             22.8369612922       -0.6715963765       17.6582258414  W2        8210            0.0000000000
     24631      8211  TIP3      OH2            24.1734812922       -1.6432263765       16.7219958414  W2        8211            0.0000000000
     24632      8211  TIP3      H1             23.9545512922       -2.5594863765       16.8915958414  W2        8211            0.0000000000
     24633      8211  TIP3      H2             24.9977012922       -1.5031863765       17.1881358414  W2        8211            0.0000000000
     24634      8212  TIP3      OH2            26.7107312922       -1.1732963765       17.5707958414  W2        8212            0.0000000000
     24635      8212  TIP3      H1             26.9233012922       -2.0613963765       17.2838858414  W2        8212            0.0000000000
     24636      8212  TIP3      H2             26.7752412922       -1.2075263765       18.5251958414  W2        8212            0.0000000000
     24637      8213  TIP3      OH2            30.2191012922      -15.5092363765       16.7151258414  W2        8213            0.0000000000
     24638      8213  TIP3      H1             29.5447812922      -16.1386763765       16.9707058414  W2        8213            0.0000000000
     24639      8213  TIP3      H2             30.7830212922      -15.9933463765       16.1119158414  W2        8213            0.0000000000
     24640      8214  TIP3      OH2            35.3618212922      -17.4018363765       16.8278358414  W2        8214            0.0000000000
     24641      8214  TIP3      H1             35.9655812922      -16.8542963765       16.3259358414  W2        8214            0.0000000000
     24642      8214  TIP3      H2             34.4920212922      -17.0827963765       16.5872458414  W2        8214            0.0000000000
     24643      8215  TIP3      OH2            22.5458512922      -16.8752063765       14.5371158414  W2        8215            0.0000000000
     24644      8215  TIP3      H1             21.7688312922      -17.1097163765       14.0297058414  W2        8215            0.0000000000
     24645      8215  TIP3      H2             23.0762112922      -17.6719963765       14.5459158414  W2        8215            0.0000000000
     24646      8216  TIP3      OH2            21.3821912922      -17.0773963765       10.3407258414  W2        8216            0.0000000000
     24647      8216  TIP3      H1             21.8212612922      -16.4663463765        9.7490758414  W2        8216            0.0000000000
     24648      8216  TIP3      H2             20.7484312922      -16.5389863765       10.8147258414  W2        8216            0.0000000000
     24649      8217  TIP3      OH2            27.1251112922      -16.9484963765       14.3504258414  W2        8217            0.0000000000
     24650      8217  TIP3      H1             27.9994512922      -16.5600663765       14.3208558414  W2        8217            0.0000000000
     24651      8217  TIP3      H2             26.9891912922      -17.1637163765       15.2731458414  W2        8217            0.0000000000
     24652      8218  TIP3      OH2            32.6819512922      -16.9185163765       15.9995958414  W2        8218            0.0000000000
     24653      8218  TIP3      H1             32.7581112922      -16.8233563765       15.0501958414  W2        8218            0.0000000000
     24654      8218  TIP3      H2             32.4068712922      -17.8262263765       16.1285058414  W2        8218            0.0000000000
     24655      8219  TIP3      OH2            34.0352112922      -16.8927363765       11.6920958414  W2        8219            0.0000000000
     24656      8219  TIP3      H1             33.3323212922      -16.2778163765       11.4822358414  W2        8219            0.0000000000
     24657      8219  TIP3      H2             33.5903512922      -17.7300663765       11.8231858414  W2        8219            0.0000000000
     24658      8220  TIP3      OH2            21.2831412922       -1.1291763765       11.2382358414  W2        8220            0.0000000000
     24659      8220  TIP3      H1             20.5981312922       -1.1672863765       10.5707458414  W2        8220            0.0000000000
     24660      8220  TIP3      H2             21.2868612922       -0.2164163765       11.5264458414  W2        8220            0.0000000000
     24661      8221  TIP3      OH2            23.2431012922      -15.1612463765        8.7831358414  W2        8221            0.0000000000
     24662      8221  TIP3      H1             23.7344412922      -15.7910063765        8.2556858414  W2        8221            0.0000000000
     24663      8221  TIP3      H2             23.8667312922      -14.8653063765        9.4462558414  W2        8221            0.0000000000
     24664      8222  TIP3      OH2            28.2691112922      -14.8680963765       11.2401858414  W2        8222            0.0000000000
     24665      8222  TIP3      H1             28.4472412922      -15.5147763765       11.9230458414  W2        8222            0.0000000000
     24666      8222  TIP3      H2             28.2157312922      -14.0343263765       11.7072958414  W2        8222            0.0000000000
     24667      8223  TIP3      OH2            30.1474912922        0.0803136235        9.6358558414  W2        8223            0.0000000000
     24668      8223  TIP3      H1             31.0135112922        0.4470536235        9.4576758414  W2        8223            0.0000000000
     24669      8223  TIP3      H2             29.9007712922       -0.3588863765        8.8219358414  W2        8223            0.0000000000
     24670      8224  TIP3      OH2            22.5036512922      -16.3610163765       24.0547358414  W2        8224            0.0000000000
     24671      8224  TIP3      H1             22.1374712922      -17.1267563765       24.4972058414  W2        8224            0.0000000000
     24672      8224  TIP3      H2             23.4165012922      -16.3319963765       24.3412458414  W2        8224            0.0000000000
     24673      8225  TIP3      OH2            24.4767312922      -17.0105763765       25.5904458414  W2        8225            0.0000000000
     24674      8225  TIP3      H1             25.3750912922      -17.2845563765       25.4057858414  W2        8225            0.0000000000
     24675      8225  TIP3      H2             24.0900412922      -17.7529763765       26.0547058414  W2        8225            0.0000000000
     24676      8226  TIP3      OH2            23.1012612922       -0.2090963765        8.2634458414  W2        8226            0.0000000000
     24677      8226  TIP3      H1             22.8337212922        0.0771936235        9.1367558414  W2        8226            0.0000000000
     24678      8226  TIP3      H2             23.8725212922       -0.7551763765        8.4156958414  W2        8226            0.0000000000
     24679      8227  TIP3      OH2            32.8979612922      -17.6780463765       25.7727258414  W2        8227            0.0000000000
     24680      8227  TIP3      H1             32.9746812922      -18.1039763765       26.6264958414  W2        8227            0.0000000000
     24681      8227  TIP3      H2             33.7916212922      -17.6645763765       25.4300758414  W2        8227            0.0000000000
     24682      8228  TIP3      OH2            36.0740712922       -1.6054163765       24.4651458414  W2        8228            0.0000000000
     24683      8228  TIP3      H1             35.2922612922       -1.7916163765       23.9452058414  W2        8228            0.0000000000
     24684      8228  TIP3      H2             36.0020612922       -0.6759863765       24.6823958414  W2        8228            0.0000000000
     24685      8229  TIP3      OH2           -24.9438887078       11.1370236235       14.4958658414  W2        8229            0.0000000000
     24686      8229  TIP3      H1            -24.8547787078       12.0808436235       14.3635758414  W2        8229            0.0000000000
     24687      8229  TIP3      H2            -25.5821287078       10.8616636235       13.8378058414  W2        8229            0.0000000000
     24688      8230  TIP3      OH2           -26.0107587078       10.3920936235       17.9146858414  W2        8230            0.0000000000
     24689      8230  TIP3      H1            -26.0490087078        9.7457236235       18.6196458414  W2        8230            0.0000000000
     24690      8230  TIP3      H2            -26.3331087078        9.9255336235       17.1435558414  W2        8230            0.0000000000
     24691      8231  TIP3      OH2           -33.6422587078       10.0063036235       19.5076758414  W2        8231            0.0000000000
     24692      8231  TIP3      H1            -33.6010487078        9.3806336235       20.2309158414  W2        8231            0.0000000000
     24693      8231  TIP3      H2            -32.9394887078       10.6301636235       19.6897158414  W2        8231            0.0000000000
     24694      8232  TIP3      OH2           -22.3047387078       13.3311336235       16.2161958414  W2        8232            0.0000000000
     24695      8232  TIP3      H1            -22.7454687078       12.6107336235       16.6667558414  W2        8232            0.0000000000
     24696      8232  TIP3      H2            -22.3177687078       14.0518536235       16.8459658414  W2        8232            0.0000000000
     24697      8233  TIP3      OH2           -32.7189487078       14.4561936235       18.0425858414  W2        8233            0.0000000000
     24698      8233  TIP3      H1            -33.0884287078       13.6542436235       17.6730158414  W2        8233            0.0000000000
     24699      8233  TIP3      H2            -31.7778387078       14.2876836235       18.0889258414  W2        8233            0.0000000000
     24700      8234  TIP3      OH2           -36.1088987078        8.1164536235       13.4354658414  W2        8234            0.0000000000
     24701      8234  TIP3      H1            -36.5565587078        8.9623236235       13.4171158414  W2        8234            0.0000000000
     24702      8234  TIP3      H2            -36.6697787078        7.5368736235       12.9199758414  W2        8234            0.0000000000
     24703      8235  TIP3      OH2           -35.3982887078       10.2784136235       15.5612658414  W2        8235            0.0000000000
     24704      8235  TIP3      H1            -35.1849387078        9.5085736235       16.0885658414  W2        8235            0.0000000000
     24705      8235  TIP3      H2            -34.6605287078       10.3680836235       14.9580258414  W2        8235            0.0000000000
     24706      8236  TIP3      OH2           -25.1931887078       18.4353036235       16.4282358414  W2        8236            0.0000000000
     24707      8236  TIP3      H1            -24.5735487078       17.7587736235       16.1551558414  W2        8236            0.0000000000
     24708      8236  TIP3      H2            -25.4014487078       18.2173836235       17.3367258414  W2        8236            0.0000000000
     24709      8237  TIP3      OH2           -27.6213187078       12.8242336235       18.3207858414  W2        8237            0.0000000000
     24710      8237  TIP3      H1            -27.3175287078       12.1383736235       17.7261958414  W2        8237            0.0000000000
     24711      8237  TIP3      H2            -26.8999187078       12.9431036235       18.9385858414  W2        8237            0.0000000000
     24712      8238  TIP3      OH2           -18.9583387078        4.4257636235       19.1814058414  W2        8238            0.0000000000
     24713      8238  TIP3      H1            -18.9091187078        5.0358836235       19.9173158414  W2        8238            0.0000000000
     24714      8238  TIP3      H2            -18.5328287078        4.8868536235       18.4585158414  W2        8238            0.0000000000
     24715      8239  TIP3      OH2           -24.4806187078        7.2184736235       18.6482658414  W2        8239            0.0000000000
     24716      8239  TIP3      H1            -24.3380287078        6.2721736235       18.6684258414  W2        8239            0.0000000000
     24717      8239  TIP3      H2            -24.5867187078        7.4254536235       17.7197558414  W2        8239            0.0000000000
     24718      8240  TIP3      OH2           -31.3257887078        5.3201136235       15.9207458414  W2        8240            0.0000000000
     24719      8240  TIP3      H1            -31.2826787078        6.1799636235       15.5023758414  W2        8240            0.0000000000
     24720      8240  TIP3      H2            -31.7833787078        4.7675836235       15.2870658414  W2        8240            0.0000000000
     24721      8241  TIP3      OH2           -23.6035187078        5.4506736235       14.3215758414  W2        8241            0.0000000000
     24722      8241  TIP3      H1            -22.9570887078        5.1219936235       14.9463358414  W2        8241            0.0000000000
     24723      8241  TIP3      H2            -23.0935787078        5.9685736235       13.6987158414  W2        8241            0.0000000000
     24724      8242  TIP3      OH2           -34.7056387078        7.7166936235       16.6828858414  W2        8242            0.0000000000
     24725      8242  TIP3      H1            -34.0519787078        7.1668636235       17.1148958414  W2        8242            0.0000000000
     24726      8242  TIP3      H2            -34.6817087078        7.4425936235       15.7660858414  W2        8242            0.0000000000
     24727      8243  TIP3      OH2           -29.5491887078        9.2668236235       15.8980358414  W2        8243            0.0000000000
     24728      8243  TIP3      H1            -28.9330887078        8.7403636235       16.4074358414  W2        8243            0.0000000000
     24729      8243  TIP3      H2            -30.1353087078        8.6266936235       15.4943958414  W2        8243            0.0000000000
     24730      8244  TIP3      OH2           -18.5668787078        5.9036836235       21.4173858414  W2        8244            0.0000000000
     24731      8244  TIP3      H1            -19.2554187078        6.5617536235       21.3220458414  W2        8244            0.0000000000
     24732      8244  TIP3      H2            -18.5514187078        5.7064736235       22.3539258414  W2        8244            0.0000000000
     24733      8245  TIP3      OH2           -32.5155987078        4.2379536235       19.9948258414  W2        8245            0.0000000000
     24734      8245  TIP3      H1            -32.7344287078        4.7680136235       19.2284258414  W2        8245            0.0000000000
     24735      8245  TIP3      H2            -33.1835087078        4.4645036235       20.6419658414  W2        8245            0.0000000000
     24736      8246  TIP3      OH2           -25.1466187078       13.7380636235       13.5387358414  W2        8246            0.0000000000
     24737      8246  TIP3      H1            -25.4421087078       13.4152936235       12.6874258414  W2        8246            0.0000000000
     24738      8246  TIP3      H2            -25.4708387078       14.6377336235       13.5799958414  W2        8246            0.0000000000
     24739      8247  TIP3      OH2           -29.9464587078       11.9135236235       20.2821958414  W2        8247            0.0000000000
     24740      8247  TIP3      H1            -30.6865487078       12.5116736235       20.3857158414  W2        8247            0.0000000000
     24741      8247  TIP3      H2            -29.2325087078       12.4674836235       19.9665558414  W2        8247            0.0000000000
     24742      8248  TIP3      OH2           -21.8396787078        4.7416036235       16.3021658414  W2        8248            0.0000000000
     24743      8248  TIP3      H1            -22.0548787078        3.9759436235       16.8347658414  W2        8248            0.0000000000
     24744      8248  TIP3      H2            -21.1839387078        5.2140636235       16.8150158414  W2        8248            0.0000000000
     24745      8249  TIP3      OH2           -32.9218687078        6.1301336235       17.9470458414  W2        8249            0.0000000000
     24746      8249  TIP3      H1            -32.3082387078        6.7628936235       18.3202858414  W2        8249            0.0000000000
     24747      8249  TIP3      H2            -32.4097987078        5.6576336235       17.2907358414  W2        8249            0.0000000000
     24748      8250  TIP3      OH2           -31.5390287078       13.8778236235       21.0693458414  W2        8250            0.0000000000
     24749      8250  TIP3      H1            -31.5442687078       14.7571736235       20.6912758414  W2        8250            0.0000000000
     24750      8250  TIP3      H2            -32.3926187078       13.7942336235       21.4943358414  W2        8250            0.0000000000
     24751      8251  TIP3      OH2           -35.4179387078       13.5486136235       11.8512758414  W2        8251            0.0000000000
     24752      8251  TIP3      H1            -35.6898487078       13.7777136235       10.9625658414  W2        8251            0.0000000000
     24753      8251  TIP3      H2            -35.3723687078       14.3864936235       12.3118058414  W2        8251            0.0000000000
     24754      8252  TIP3      OH2           -21.7929687078       15.1702036235       18.5641258414  W2        8252            0.0000000000
     24755      8252  TIP3      H1            -22.7345987078       15.2285936235       18.7258158414  W2        8252            0.0000000000
     24756      8252  TIP3      H2            -21.5163587078       16.0762536235       18.4270958414  W2        8252            0.0000000000
     24757      8253  TIP3      OH2           -21.4922687078        3.4567336235       19.9815158414  W2        8253            0.0000000000
     24758      8253  TIP3      H1            -22.2283487078        4.0674436235       19.9436458414  W2        8253            0.0000000000
     24759      8253  TIP3      H2            -20.8088687078        3.8716336235       19.4551558414  W2        8253            0.0000000000
     24760      8254  TIP3      OH2           -28.4891287078        1.5434636235       17.4473158414  W2        8254            0.0000000000
     24761      8254  TIP3      H1            -28.6067087078        0.5950636235       17.3931458414  W2        8254            0.0000000000
     24762      8254  TIP3      H2            -29.3441187078        1.8760736235       17.7204258414  W2        8254            0.0000000000
     24763      8255  TIP3      OH2           -23.5408487078       16.9515536235       15.1892858414  W2        8255            0.0000000000
     24764      8255  TIP3      H1            -23.1156187078       16.2443436235       14.7042458414  W2        8255            0.0000000000
     24765      8255  TIP3      H2            -23.2238487078       17.7528236235       14.7725058414  W2        8255            0.0000000000
     24766      8256  TIP3      OH2           -22.3811987078       14.8524036235       13.6979458414  W2        8256            0.0000000000
     24767      8256  TIP3      H1            -22.6387187078       14.1624136235       13.0865358414  W2        8256            0.0000000000
     24768      8256  TIP3      H2            -22.3101187078       14.4095236235       14.5435358414  W2        8256            0.0000000000
     24769      8257  TIP3      OH2           -20.6951787078       13.4190736235       22.1752958414  W2        8257            0.0000000000
     24770      8257  TIP3      H1            -20.5555487078       12.8273236235       21.4359958414  W2        8257            0.0000000000
     24771      8257  TIP3      H2            -20.5278987078       14.2916636235       21.8191758414  W2        8257            0.0000000000
     24772      8258  TIP3      OH2           -26.2226387078       10.3810236235       11.9478958414  W2        8258            0.0000000000
     24773      8258  TIP3      H1            -26.9340887078       10.9159936235       11.5959458414  W2        8258            0.0000000000
     24774      8258  TIP3      H2            -25.5316787078       10.4362336235       11.2877858414  W2        8258            0.0000000000
     24775      8259  TIP3      OH2           -26.1687187078        8.8384536235        8.9863958414  W2        8259            0.0000000000
     24776      8259  TIP3      H1            -25.4677287078        8.8611436235        9.6377958414  W2        8259            0.0000000000
     24777      8259  TIP3      H2            -25.8664287078        8.2104236235        8.3303258414  W2        8259            0.0000000000
     24778      8260  TIP3      OH2           -18.8532487078        9.7588736235       20.2413358414  W2        8260            0.0000000000
     24779      8260  TIP3      H1            -19.5058387078       10.4534336235       20.3304258414  W2        8260            0.0000000000
     24780      8260  TIP3      H2            -18.3882187078        9.9689636235       19.4314958414  W2        8260            0.0000000000
     24781      8261  TIP3      OH2           -22.8168687078       10.5903536235       12.8994858414  W2        8261            0.0000000000
     24782      8261  TIP3      H1            -23.5487687078       10.8187236235       13.4725458414  W2        8261            0.0000000000
     24783      8261  TIP3      H2            -22.3696487078        9.8766236235       13.3542358414  W2        8261            0.0000000000
     24784      8262  TIP3      OH2           -22.9195187078        8.7646136235       21.9671858414  W2        8262            0.0000000000
     24785      8262  TIP3      H1            -22.8396087078        9.5280536235       22.5390358414  W2        8262            0.0000000000
     24786      8262  TIP3      H2            -23.5207487078        9.0438536235       21.2766958414  W2        8262            0.0000000000
     24787      8263  TIP3      OH2           -31.1714987078       11.2209736235       14.7819858414  W2        8263            0.0000000000
     24788      8263  TIP3      H1            -31.5019787078       10.8503136235       13.9636858414  W2        8263            0.0000000000
     24789      8263  TIP3      H2            -30.5830887078       10.5503736235       15.1288158414  W2        8263            0.0000000000
     24790      8264  TIP3      OH2           -29.8047487078       14.6490336235       17.4632058414  W2        8264            0.0000000000
     24791      8264  TIP3      H1            -29.8996187078       14.0703436235       16.7066658414  W2        8264            0.0000000000
     24792      8264  TIP3      H2            -29.0753887078       14.2776036235       17.9594858414  W2        8264            0.0000000000
     24793      8265  TIP3      OH2           -30.8049487078        9.9895336235       18.4154858414  W2        8265            0.0000000000
     24794      8265  TIP3      H1            -30.2396987078       10.1109536235       17.6526058414  W2        8265            0.0000000000
     24795      8265  TIP3      H2            -30.4860587078       10.6270336235       19.0543358414  W2        8265            0.0000000000
     24796      8266  TIP3      OH2           -24.4957287078       15.4927236235       19.1495358414  W2        8266            0.0000000000
     24797      8266  TIP3      H1            -24.7360687078       16.1550336235       19.7974558414  W2        8266            0.0000000000
     24798      8266  TIP3      H2            -24.6939087078       14.6582436235       19.5744958414  W2        8266            0.0000000000
     24799      8267  TIP3      OH2           -29.9248787078       14.3888036235       23.1326758414  W2        8267            0.0000000000
     24800      8267  TIP3      H1            -30.2361287078       15.1711236235       23.5879958414  W2        8267            0.0000000000
     24801      8267  TIP3      H2            -30.5748587078       14.2357136235       22.4468758414  W2        8267            0.0000000000
     24802      8268  TIP3      OH2           -23.9459187078        9.7526436235       10.5846058414  W2        8268            0.0000000000
     24803      8268  TIP3      H1            -23.3663687078        9.9026736235       11.3314958414  W2        8268            0.0000000000
     24804      8268  TIP3      H2            -23.5319187078       10.2233836235        9.8612458414  W2        8268            0.0000000000
     24805      8269  TIP3      OH2           -33.0048887078       10.5869136235       22.3612458414  W2        8269            0.0000000000
     24806      8269  TIP3      H1            -32.9345687078       11.2375936235       23.0597458414  W2        8269            0.0000000000
     24807      8269  TIP3      H2            -33.8956687078       10.6896636235       22.0263358414  W2        8269            0.0000000000
     24808      8270  TIP3      OH2           -26.2194287078       16.4894936235       14.0199158414  W2        8270            0.0000000000
     24809      8270  TIP3      H1            -25.7456687078       16.7851236235       14.7973358414  W2        8270            0.0000000000
     24810      8270  TIP3      H2            -26.7824987078       17.2276536235       13.7868758414  W2        8270            0.0000000000
     24811      8271  TIP3      OH2           -31.6852887078       16.4603036235       23.8960558414  W2        8271            0.0000000000
     24812      8271  TIP3      H1            -31.6777587078       16.3242736235       22.9486058414  W2        8271            0.0000000000
     24813      8271  TIP3      H2            -32.6012487078       16.3431136235       24.1480558414  W2        8271            0.0000000000
     24814      8272  TIP3      OH2           -20.2470787078        1.5026836235       10.3975758414  W2        8272            0.0000000000
     24815      8272  TIP3      H1            -21.1470087078        1.6415836235       10.6926358414  W2        8272            0.0000000000
     24816      8272  TIP3      H2            -19.9952387078        2.3341436235        9.9957458414  W2        8272            0.0000000000
     24817      8273  TIP3      OH2           -32.1812287078       10.2904036235       12.3712658414  W2        8273            0.0000000000
     24818      8273  TIP3      H1            -32.4730987078       11.0585736235       11.8803958414  W2        8273            0.0000000000
     24819      8273  TIP3      H2            -32.8557087078        9.6310236235       12.2084058414  W2        8273            0.0000000000
     24820      8274  TIP3      OH2           -19.0579387078       15.8689236235        8.7739658414  W2        8274            0.0000000000
     24821      8274  TIP3      H1            -18.9845887078       16.8079436235        8.9444958414  W2        8274            0.0000000000
     24822      8274  TIP3      H2            -18.1524287078       15.5637836235        8.7176958414  W2        8274            0.0000000000
     24823      8275  TIP3      OH2           -36.0882187078       12.6533236235       21.1862458414  W2        8275            0.0000000000
     24824      8275  TIP3      H1            -36.5893787078       12.6252636235       20.3712158414  W2        8275            0.0000000000
     24825      8275  TIP3      H2            -36.0828487078       11.7476436235       21.4959758414  W2        8275            0.0000000000
     24826      8276  TIP3      OH2           -36.3379487078       15.4337036235       18.0702658414  W2        8276            0.0000000000
     24827      8276  TIP3      H1            -35.3918887078       15.2894036235       18.0512158414  W2        8276            0.0000000000
     24828      8276  TIP3      H2            -36.4503187078       16.2179836235       18.6073858414  W2        8276            0.0000000000
     24829      8277  TIP3      OH2           -18.1400987078       16.0996736235       23.7526358414  W2        8277            0.0000000000
     24830      8277  TIP3      H1            -18.1894187078       15.1444836235       23.7153958414  W2        8277            0.0000000000
     24831      8277  TIP3      H2            -18.9668687078       16.3672036235       24.1540158414  W2        8277            0.0000000000
     24832      8278  TIP3      OH2           -27.1616987078       15.6735936235       22.6287758414  W2        8278            0.0000000000
     24833      8278  TIP3      H1            -27.0742387078       16.5000536235       23.1036858414  W2        8278            0.0000000000
     24834      8278  TIP3      H2            -28.0251887078       15.3439736235       22.8777058414  W2        8278            0.0000000000
     24835      8279  TIP3      OH2           -26.7471187078       19.4459636235       12.4348358414  W2        8279            0.0000000000
     24836      8279  TIP3      H1            -26.8225187078       19.3246836235       11.4883558414  W2        8279            0.0000000000
     24837      8279  TIP3      H2            -26.7142487078       20.3952336235       12.5532958414  W2        8279            0.0000000000
     24838      8280  TIP3      OH2           -33.0937387078       18.2346636235       14.2157358414  W2        8280            0.0000000000
     24839      8280  TIP3      H1            -32.9416987078       17.8867036235       15.0943858414  W2        8280            0.0000000000
     24840      8280  TIP3      H2            -33.9446987078       17.8783936235       13.9604558414  W2        8280            0.0000000000
     24841      8281  TIP3      OH2           -23.6455187078       18.5999836235        9.4370758414  W2        8281            0.0000000000
     24842      8281  TIP3      H1            -23.2706787078       17.8555936235        8.9663358414  W2        8281            0.0000000000
     24843      8281  TIP3      H2            -23.6411487078       18.3300436235       10.3554058414  W2        8281            0.0000000000
     24844      8282  TIP3      OH2           -23.9767087078       18.5256936235       12.1862958414  W2        8282            0.0000000000
     24845      8282  TIP3      H1            -24.9117287078       18.6258836235       12.3649958414  W2        8282            0.0000000000
     24846      8282  TIP3      H2            -23.6965187078       17.8162936235       12.7646158414  W2        8282            0.0000000000
     24847      8283  TIP3      OH2           -20.9881187078        7.5929236235       24.2328558414  W2        8283            0.0000000000
     24848      8283  TIP3      H1            -21.3954387078        8.0734836235       23.5121858414  W2        8283            0.0000000000
     24849      8283  TIP3      H2            -20.9475487078        6.6875236235       23.9249358414  W2        8283            0.0000000000
     24850      8284  TIP3      OH2           -33.8391687078       13.9768636235       22.2295258414  W2        8284            0.0000000000
     24851      8284  TIP3      H1            -33.6230387078       13.6154236235       23.0891058414  W2        8284            0.0000000000
     24852      8284  TIP3      H2            -34.6946987078       13.6022436235       22.0198758414  W2        8284            0.0000000000
     24853      8285  TIP3      OH2           -31.2203687078        2.4469136235       18.2249458414  W2        8285            0.0000000000
     24854      8285  TIP3      H1            -32.0819987078        2.3597336235       17.8172358414  W2        8285            0.0000000000
     24855      8285  TIP3      H2            -31.2427987078        3.3029236235       18.6527058414  W2        8285            0.0000000000
     24856      8286  TIP3      OH2           -26.5575887078        2.1689536235       21.5996458414  W2        8286            0.0000000000
     24857      8286  TIP3      H1            -26.1372787078        1.7536636235       22.3527058414  W2        8286            0.0000000000
     24858      8286  TIP3      H2            -27.4906287078        1.9902836235       21.7168458414  W2        8286            0.0000000000
     24859      8287  TIP3      OH2           -23.2310987078        5.9244736235       22.4530958414  W2        8287            0.0000000000
     24860      8287  TIP3      H1            -23.7451487078        5.7986936235       23.2506958414  W2        8287            0.0000000000
     24861      8287  TIP3      H2            -23.3866287078        6.8367836235       22.2087158414  W2        8287            0.0000000000
     24862      8288  TIP3      OH2           -22.4686087078       10.7854736235        8.2143958414  W2        8288            0.0000000000
     24863      8288  TIP3      H1            -22.4265287078       10.5628636235        7.2843958414  W2        8288            0.0000000000
     24864      8288  TIP3      H2            -21.6193987078       11.1841836235        8.4043858414  W2        8288            0.0000000000
     24865      8289  TIP3      OH2           -26.8958587078        4.6612936235        8.8847258414  W2        8289            0.0000000000
     24866      8289  TIP3      H1            -27.1493787078        4.6804536235        9.8075358414  W2        8289            0.0000000000
     24867      8289  TIP3      H2            -27.1526487078        3.7898336235        8.5833458414  W2        8289            0.0000000000
     24868      8290  TIP3      OH2           -31.1293587078        7.4123636235       19.3199658414  W2        8290            0.0000000000
     24869      8290  TIP3      H1            -31.7711487078        7.3720936235       20.0289758414  W2        8290            0.0000000000
     24870      8290  TIP3      H2            -31.0921587078        8.3388336235       19.0822658414  W2        8290            0.0000000000
     24871      8291  TIP3      OH2           -31.1324487078        7.6333736235       14.2319658414  W2        8291            0.0000000000
     24872      8291  TIP3      H1            -32.0251587078        7.2929836235       14.1733458414  W2        8291            0.0000000000
     24873      8291  TIP3      H2            -30.6817887078        7.2564636235       13.4762858414  W2        8291            0.0000000000
     24874      8292  TIP3      OH2           -25.5968987078        8.0494036235       13.0490458414  W2        8292            0.0000000000
     24875      8292  TIP3      H1            -26.0058687078        8.8642636235       12.7575258414  W2        8292            0.0000000000
     24876      8292  TIP3      H2            -24.8762787078        7.9094136235       12.4347558414  W2        8292            0.0000000000
     24877      8293  TIP3      OH2           -26.4947387078        8.2250436235       24.5371158414  W2        8293            0.0000000000
     24878      8293  TIP3      H1            -27.0573587078        7.5202036235       24.8578958414  W2        8293            0.0000000000
     24879      8293  TIP3      H2            -25.6683987078        8.1042336235       25.0048758414  W2        8293            0.0000000000
     24880      8294  TIP3      OH2           -24.5921287078        7.4954436235       15.8630158414  W2        8294            0.0000000000
     24881      8294  TIP3      H1            -24.7876787078        8.1011236235       15.1480758414  W2        8294            0.0000000000
     24882      8294  TIP3      H2            -24.4108687078        6.6619636235       15.4286458414  W2        8294            0.0000000000
     24883      8295  TIP3      OH2           -33.3793087078        7.7327136235       21.1871658414  W2        8295            0.0000000000
     24884      8295  TIP3      H1            -33.4173687078        8.1328736235       22.0558758414  W2        8295            0.0000000000
     24885      8295  TIP3      H2            -33.8701987078        6.9159536235       21.2774558414  W2        8295            0.0000000000
     24886      8296  TIP3      OH2           -30.0135687078        5.1069436235        7.9857658414  W2        8296            0.0000000000
     24887      8296  TIP3      H1            -30.4444987078        4.6619536235        8.7155058414  W2        8296            0.0000000000
     24888      8296  TIP3      H2            -30.7316987078        5.4785736235        7.4735158414  W2        8296            0.0000000000
     24889      8297  TIP3      OH2           -36.7712287078        4.8488936235       15.0376358414  W2        8297            0.0000000000
     24890      8297  TIP3      H1            -36.1404587078        4.8201036235       15.7570258414  W2        8297            0.0000000000
     24891      8297  TIP3      H2            -36.3217987078        4.4237636235       14.3072258414  W2        8297            0.0000000000
     24892      8298  TIP3      OH2           -35.4970187078        5.5950936235       10.4616758414  W2        8298            0.0000000000
     24893      8298  TIP3      H1            -35.0228487078        6.1860836235        9.8767658414  W2        8298            0.0000000000
     24894      8298  TIP3      H2            -36.2143787078        6.1253836235       10.8086858414  W2        8298            0.0000000000
     24895      8299  TIP3      OH2           -25.3282087078        9.1335736235       20.5342558414  W2        8299            0.0000000000
     24896      8299  TIP3      H1            -25.0047287078        8.5025436235       19.8913058414  W2        8299            0.0000000000
     24897      8299  TIP3      H2            -25.7682787078        8.5987936235       21.1949958414  W2        8299            0.0000000000
     24898      8300  TIP3      OH2           -28.5509187078        5.0611236235       15.3183758414  W2        8300            0.0000000000
     24899      8300  TIP3      H1            -29.4618087078        5.1178036235       15.6069758414  W2        8300            0.0000000000
     24900      8300  TIP3      H2            -28.0456287078        5.0006736235       16.1290958414  W2        8300            0.0000000000
     24901      8301  TIP3      OH2           -33.7225787078        6.6897536235       14.1451358414  W2        8301            0.0000000000
     24902      8301  TIP3      H1            -34.6117787078        6.7893036235       13.8050958414  W2        8301            0.0000000000
     24903      8301  TIP3      H2            -33.4260887078        5.8480536235       13.7989258414  W2        8301            0.0000000000
     24904      8302  TIP3      OH2           -30.0693987078        6.6900136235       11.8015958414  W2        8302            0.0000000000
     24905      8302  TIP3      H1            -29.1378487078        6.8190136235       11.9799058414  W2        8302            0.0000000000
     24906      8302  TIP3      H2            -30.2843687078        7.3594436235       11.1520658414  W2        8302            0.0000000000
     24907      8303  TIP3      OH2           -24.1457287078        4.2957536235       18.5825558414  W2        8303            0.0000000000
     24908      8303  TIP3      H1            -24.8225687078        4.4270636235       19.2465258414  W2        8303            0.0000000000
     24909      8303  TIP3      H2            -24.6312387078        4.1407036235       17.7723258414  W2        8303            0.0000000000
     24910      8304  TIP3      OH2           -31.3953787078        7.8842336235        9.3682058414  W2        8304            0.0000000000
     24911      8304  TIP3      H1            -31.9378687078        7.5046136235        8.6769658414  W2        8304            0.0000000000
     24912      8304  TIP3      H2            -30.5618887078        8.0787036235        8.9396158414  W2        8304            0.0000000000
     24913      8305  TIP3      OH2           -20.8582187078       19.9672936235       24.8593158414  W2        8305            0.0000000000
     24914      8305  TIP3      H1            -20.6583487078       20.3914836235       24.0248458414  W2        8305            0.0000000000
     24915      8305  TIP3      H2            -20.2028487078       20.3111136235       25.4663558414  W2        8305            0.0000000000
     24916      8306  TIP3      OH2           -33.2602387078       12.4414236235       24.4673658414  W2        8306            0.0000000000
     24917      8306  TIP3      H1            -32.5279987078       12.6960136235       25.0288158414  W2        8306            0.0000000000
     24918      8306  TIP3      H2            -34.0403687078       12.6459636235       24.9829058414  W2        8306            0.0000000000
     24919      8307  TIP3      OH2           -27.2309487078        7.8484236235       17.2053358414  W2        8307            0.0000000000
     24920      8307  TIP3      H1            -26.6666087078        7.3020836235       16.6582958414  W2        8307            0.0000000000
     24921      8307  TIP3      H2            -27.3786087078        7.3266136235       17.9940958414  W2        8307            0.0000000000
     24922      8308  TIP3      OH2           -32.2289787078        3.9850336235       13.6238158414  W2        8308            0.0000000000
     24923      8308  TIP3      H1            -32.5460287078        3.0825636235       13.5883558414  W2        8308            0.0000000000
     24924      8308  TIP3      H2            -31.4475687078        3.9867736235       13.0709758414  W2        8308            0.0000000000
     24925      8309  TIP3      OH2           -28.6043587078        6.2370336235       19.6193758414  W2        8309            0.0000000000
     24926      8309  TIP3      H1            -29.4398287078        6.6909836235       19.7296158414  W2        8309            0.0000000000
     24927      8309  TIP3      H2            -28.0802987078        6.5128836235       20.3713658414  W2        8309            0.0000000000
     24928      8310  TIP3      OH2           -28.0600987078       12.4498036235       11.3040158414  W2        8310            0.0000000000
     24929      8310  TIP3      H1            -28.8049987078       11.9423336235       10.9818058414  W2        8310            0.0000000000
     24930      8310  TIP3      H2            -28.1943787078       12.4986036235       12.2504958414  W2        8310            0.0000000000
     24931      8311  TIP3      OH2           -20.9102087078       11.5826236235       20.0907758414  W2        8311            0.0000000000
     24932      8311  TIP3      H1            -20.2683287078       12.0392536235       19.5469958414  W2        8311            0.0000000000
     24933      8311  TIP3      H2            -21.7405187078       11.6958636235       19.6281858414  W2        8311            0.0000000000
     24934      8312  TIP3      OH2           -24.1624187078        5.2637936235        9.5032758414  W2        8312            0.0000000000
     24935      8312  TIP3      H1            -25.1009987078        5.3753536235        9.3521558414  W2        8312            0.0000000000
     24936      8312  TIP3      H2            -23.8652087078        6.1204836235        9.8098458414  W2        8312            0.0000000000
     24937      8313  TIP3      OH2           -26.5408887078       12.6341336235       22.5409258414  W2        8313            0.0000000000
     24938      8313  TIP3      H1            -26.8862787078       12.2523736235       23.3478858414  W2        8313            0.0000000000
     24939      8313  TIP3      H2            -26.7408787078       13.5674936235       22.6122158414  W2        8313            0.0000000000
     24940      8314  TIP3      OH2           -23.4440687078        7.1310636235       11.1640158414  W2        8314            0.0000000000
     24941      8314  TIP3      H1            -22.5521687078        6.9935636235       11.4831358414  W2        8314            0.0000000000
     24942      8314  TIP3      H2            -23.3877087078        7.9216736235       10.6273658414  W2        8314            0.0000000000
     24943      8315  TIP3      OH2           -32.9352687078       11.7448036235       17.0738058414  W2        8315            0.0000000000
     24944      8315  TIP3      H1            -32.1905487078       11.7423736235       16.4724558414  W2        8315            0.0000000000
     24945      8315  TIP3      H2            -32.8576087078       10.9211836235       17.5553158414  W2        8315            0.0000000000
     24946      8316  TIP3      OH2           -25.9346887078       13.9082336235       10.3294758414  W2        8316            0.0000000000
     24947      8316  TIP3      H1            -26.2298487078       14.7350236235       10.7109558414  W2        8316            0.0000000000
     24948      8316  TIP3      H2            -26.6376887078       13.2889236235       10.5256158414  W2        8316            0.0000000000
     24949      8317  TIP3      OH2           -35.9272987078       10.2054936235       22.3886558414  W2        8317            0.0000000000
     24950      8317  TIP3      H1            -35.7044387078        9.7874536235       23.2204058414  W2        8317            0.0000000000
     24951      8317  TIP3      H2            -36.5292887078        9.5929936235       21.9659358414  W2        8317            0.0000000000
     24952      8318  TIP3      OH2           -28.9108087078        9.7224836235       24.6016258414  W2        8318            0.0000000000
     24953      8318  TIP3      H1            -29.2067287078        9.5567836235       23.7065358414  W2        8318            0.0000000000
     24954      8318  TIP3      H2            -27.9792887078        9.5025136235       24.5910158414  W2        8318            0.0000000000
     24955      8319  TIP3      OH2           -24.2905287078       15.0956836235       22.4914258414  W2        8319            0.0000000000
     24956      8319  TIP3      H1            -25.1910987078       15.2789436235       22.2238158414  W2        8319            0.0000000000
     24957      8319  TIP3      H2            -24.2564187078       15.3546136235       23.4123058414  W2        8319            0.0000000000
     24958      8320  TIP3      OH2           -18.5591987078        7.3404736235       10.8586858414  W2        8320            0.0000000000
     24959      8320  TIP3      H1            -19.1135687078        6.9442736235       10.1864358414  W2        8320            0.0000000000
     24960      8320  TIP3      H2            -18.4588387078        8.2509936235       10.5810158414  W2        8320            0.0000000000
     24961      8321  TIP3      OH2           -18.5959987078       13.1406436235       23.6958358414  W2        8321            0.0000000000
     24962      8321  TIP3      H1            -19.4471487078       13.3790236235       23.3284758414  W2        8321            0.0000000000
     24963      8321  TIP3      H2            -18.0056587078       13.1239636235       22.9425458414  W2        8321            0.0000000000
     24964      8322  TIP3      OH2           -20.2640287078       16.1265136235       11.3238958414  W2        8322            0.0000000000
     24965      8322  TIP3      H1            -20.6369187078       15.3008936235       11.6329558414  W2        8322            0.0000000000
     24966      8322  TIP3      H2            -19.9866787078       15.9434536235       10.4262358414  W2        8322            0.0000000000
     24967      8323  TIP3      OH2           -23.1036387078       10.9344636235       18.3450858414  W2        8323            0.0000000000
     24968      8323  TIP3      H1            -24.0319487078       10.7026536235       18.3180158414  W2        8323            0.0000000000
     24969      8323  TIP3      H2            -22.6525287078       10.1574436235       18.0149658414  W2        8323            0.0000000000
     24970      8324  TIP3      OH2           -30.5603287078       15.2626236235       14.4779558414  W2        8324            0.0000000000
     24971      8324  TIP3      H1            -30.0331087078       16.0360636235       14.2778358414  W2        8324            0.0000000000
     24972      8324  TIP3      H2            -31.4404787078       15.4875436235       14.1763558414  W2        8324            0.0000000000
     24973      8325  TIP3      OH2           -34.8055587078       10.1250336235        9.0651958414  W2        8325            0.0000000000
     24974      8325  TIP3      H1            -34.1895687078       10.7517536235        9.4446758414  W2        8325            0.0000000000
     24975      8325  TIP3      H2            -35.6672987078       10.4410136235        9.3368458414  W2        8325            0.0000000000
     24976      8326  TIP3      OH2           -29.1330987078       12.9256136235       14.0543858414  W2        8326            0.0000000000
     24977      8326  TIP3      H1            -29.3740987078       13.8510536235       14.0959158414  W2        8326            0.0000000000
     24978      8326  TIP3      H2            -29.8737387078       12.4667436235       14.4507758414  W2        8326            0.0000000000
     24979      8327  TIP3      OH2           -28.6184387078       17.0749736235       20.3694958414  W2        8327            0.0000000000
     24980      8327  TIP3      H1            -28.2559687078       17.9295336235       20.1359358414  W2        8327            0.0000000000
     24981      8327  TIP3      H2            -28.0869187078       16.7831336235       21.1101258414  W2        8327            0.0000000000
     24982      8328  TIP3      OH2           -30.4500187078       17.9473736235       13.5996058414  W2        8328            0.0000000000
     24983      8328  TIP3      H1            -31.3999687078       18.0531136235       13.6509358414  W2        8328            0.0000000000
     24984      8328  TIP3      H2            -30.0982087078       18.7681136235       13.9443558414  W2        8328            0.0000000000
     24985      8329  TIP3      OH2           -25.0743587078       13.1740436235       20.0700558414  W2        8329            0.0000000000
     24986      8329  TIP3      H1            -25.5002287078       12.9462136235       20.8964558414  W2        8329            0.0000000000
     24987      8329  TIP3      H2            -24.4937787078       12.4352236235       19.8875858414  W2        8329            0.0000000000
     24988      8330  TIP3      OH2           -22.8714687078       14.1030936235        9.1439558414  W2        8330            0.0000000000
     24989      8330  TIP3      H1            -22.5181587078       13.7230736235        9.9483058414  W2        8330            0.0000000000
     24990      8330  TIP3      H2            -23.8201187078       14.0095736235        9.2308858414  W2        8330            0.0000000000
     24991      8331  TIP3      OH2           -22.4159387078       17.7259936235       22.5395358414  W2        8331            0.0000000000
     24992      8331  TIP3      H1            -23.0176187078       17.1702836235       22.0441658414  W2        8331            0.0000000000
     24993      8331  TIP3      H2            -22.1345687078       18.3929736235       21.9132758414  W2        8331            0.0000000000
     24994      8332  TIP3      OH2           -18.3680287078       18.5823436235        9.3449758414  W2        8332            0.0000000000
     24995      8332  TIP3      H1            -17.6242387078       19.1683936235        9.2051358414  W2        8332            0.0000000000
     24996      8332  TIP3      H2            -19.0622187078       19.1509236235        9.6782158414  W2        8332            0.0000000000
     24997      8333  TIP3      OH2           -34.2933487078        4.9587636235       21.9467958414  W2        8333            0.0000000000
     24998      8333  TIP3      H1            -35.1861187078        5.2973036235       21.8791958414  W2        8333            0.0000000000
     24999      8333  TIP3      H2            -34.3920687078        4.1033736235       22.3648758414  W2        8333            0.0000000000
     25000      8334  TIP3      OH2           -22.0055387078       12.7752936235       11.3707458414  W2        8334            0.0000000000
     25001      8334  TIP3      H1            -22.2827787078       12.0472236235       11.9268558414  W2        8334            0.0000000000
     25002      8334  TIP3      H2            -21.0782387078       12.8944936235       11.5760058414  W2        8334            0.0000000000
     25003      8335  TIP3      OH2           -34.6421487078       16.7632036235       20.3817358414  W2        8335            0.0000000000
     25004      8335  TIP3      H1            -34.4251187078       15.8314436235       20.3507058414  W2        8335            0.0000000000
     25005      8335  TIP3      H2            -34.3957987078       17.0377036235       21.2650158414  W2        8335            0.0000000000
     25006      8336  TIP3      OH2           -28.7806887078       15.2147036235        7.5909558414  W2        8336            0.0000000000
     25007      8336  TIP3      H1            -28.5417087078       14.4665136235        7.0438458414  W2        8336            0.0000000000
     25008      8336  TIP3      H2            -29.0495587078       14.8268736235        8.4237358414  W2        8336            0.0000000000
     25009      8337  TIP3      OH2           -29.8436287078       14.7850836235       10.0472158414  W2        8337            0.0000000000
     25010      8337  TIP3      H1            -29.6968287078       14.2650636235       10.8373058414  W2        8337            0.0000000000
     25011      8337  TIP3      H2            -29.8464587078       15.6918436235       10.3538058414  W2        8337            0.0000000000
     25012      8338  TIP3      OH2           -33.3905187078       12.0374136235       10.5577558414  W2        8338            0.0000000000
     25013      8338  TIP3      H1            -34.0765887078       12.3896636235       11.1247258414  W2        8338            0.0000000000
     25014      8338  TIP3      H2            -32.8677287078       12.8003736235       10.3111858414  W2        8338            0.0000000000
     25015      8339  TIP3      OH2           -25.5590087078        4.6997936235       20.8366558414  W2        8339            0.0000000000
     25016      8339  TIP3      H1            -24.8602187078        4.7736636235       21.4866258414  W2        8339            0.0000000000
     25017      8339  TIP3      H2            -25.9398687078        3.8352936235       20.9909458414  W2        8339            0.0000000000
     25018      8340  TIP3      OH2           -24.7745187078        4.3519636235       11.9338858414  W2        8340            0.0000000000
     25019      8340  TIP3      H1            -24.5546887078        4.8235036235       11.1304258414  W2        8340            0.0000000000
     25020      8340  TIP3      H2            -24.2161187078        4.7462236235       12.6039458414  W2        8340            0.0000000000
     25021      8341  TIP3      OH2           -27.1059087078       16.4824436235       10.7966358414  W2        8341            0.0000000000
     25022      8341  TIP3      H1            -27.9222987078       16.9794136235       10.8490658414  W2        8341            0.0000000000
     25023      8341  TIP3      H2            -26.5762787078       16.9577936235       10.1565158414  W2        8341            0.0000000000
     25024      8342  TIP3      OH2           -27.5745287078        6.0798436235       12.7687258414  W2        8342            0.0000000000
     25025      8342  TIP3      H1            -26.7622687078        6.5841636235       12.8148958414  W2        8342            0.0000000000
     25026      8342  TIP3      H2            -27.8192287078        5.9348136235       13.6826858414  W2        8342            0.0000000000
     25027      8343  TIP3      OH2           -27.0388887078        7.0661136235       21.9533858414  W2        8343            0.0000000000
     25028      8343  TIP3      H1            -26.9198587078        7.6396536235       22.7104258414  W2        8343            0.0000000000
     25029      8343  TIP3      H2            -26.3834287078        6.3780536235       22.0681658414  W2        8343            0.0000000000
     25030      8344  TIP3      OH2           -26.6908587078        3.1611436235       13.7068358414  W2        8344            0.0000000000
     25031      8344  TIP3      H1            -27.0375087078        3.7782036235       14.3512658414  W2        8344            0.0000000000
     25032      8344  TIP3      H2            -26.0321687078        3.6617136235       13.2253858414  W2        8344            0.0000000000
     25033      8345  TIP3      OH2           -29.7675987078       17.5261636235       10.7783258414  W2        8345            0.0000000000
     25034      8345  TIP3      H1            -29.6067287078       18.3259136235       10.2775858414  W2        8345            0.0000000000
     25035      8345  TIP3      H2            -29.9648187078       17.8327636235       11.6633858414  W2        8345            0.0000000000
     25036      8346  TIP3      OH2           -31.0331587078        4.2240836235       10.3940858414  W2        8346            0.0000000000
     25037      8346  TIP3      H1            -31.1166787078        5.1123936235       10.7407258414  W2        8346            0.0000000000
     25038      8346  TIP3      H2            -30.1431287078        3.9587536235       10.6257658414  W2        8346            0.0000000000
     25039      8347  TIP3      OH2           -20.8343087078        4.9731436235       22.7883558414  W2        8347            0.0000000000
     25040      8347  TIP3      H1            -21.7507287078        5.2353136235       22.7007258414  W2        8347            0.0000000000
     25041      8347  TIP3      H2            -20.4988087078        4.9700436235       21.8918858414  W2        8347            0.0000000000
     25042      8348  TIP3      OH2           -22.2322087078        8.7232436235       16.8840858414  W2        8348            0.0000000000
     25043      8348  TIP3      H1            -23.0297687078        8.3082636235       16.5555858414  W2        8348            0.0000000000
     25044      8348  TIP3      H2            -21.7870987078        8.0326136235       17.3751358414  W2        8348            0.0000000000
     25045      8349  TIP3      OH2           -32.7746287078       14.6513036235        9.4545358414  W2        8349            0.0000000000
     25046      8349  TIP3      H1            -32.1824787078       15.3507836235        9.7307758414  W2        8349            0.0000000000
     25047      8349  TIP3      H2            -32.3153287078       14.2182536235        8.7349958414  W2        8349            0.0000000000
     25048      8350  TIP3      OH2           -34.4587087078        7.3156036235        8.5704758414  W2        8350            0.0000000000
     25049      8350  TIP3      H1            -34.5034487078        8.2549136235        8.7491758414  W2        8350            0.0000000000
     25050      8350  TIP3      H2            -35.3463887078        7.0800936235        8.3006858414  W2        8350            0.0000000000
     25051      8351  TIP3      OH2           -21.1457487078       17.9794936235       18.5064358414  W2        8351            0.0000000000
     25052      8351  TIP3      H1            -21.3013187078       18.6579336235       17.8493658414  W2        8351            0.0000000000
     25053      8351  TIP3      H2            -20.2131087078       18.0514236235       18.7094958414  W2        8351            0.0000000000
     25054      8352  TIP3      OH2           -33.6505087078        2.0972636235       17.2435758414  W2        8352            0.0000000000
     25055      8352  TIP3      H1            -33.8795287078        2.1565136235       16.3160758414  W2        8352            0.0000000000
     25056      8352  TIP3      H2            -34.0931687078        1.3058136235       17.5499858414  W2        8352            0.0000000000
     25057      8353  TIP3      OH2           -34.7201787078       16.0379736235       13.4041558414  W2        8353            0.0000000000
     25058      8353  TIP3      H1            -35.5523187078       16.5102436235       13.4312958414  W2        8353            0.0000000000
     25059      8353  TIP3      H2            -34.1743487078       16.5477336235       12.8054658414  W2        8353            0.0000000000
     25060      8354  TIP3      OH2           -35.4318087078       18.6503436235       24.7339558414  W2        8354            0.0000000000
     25061      8354  TIP3      H1            -34.8915887078       18.4337436235       25.4938758414  W2        8354            0.0000000000
     25062      8354  TIP3      H2            -35.9130087078       17.8449436235       24.5442058414  W2        8354            0.0000000000
     25063      8355  TIP3      OH2           -30.8344687078       17.5697836235       26.3543758414  W2        8355            0.0000000000
     25064      8355  TIP3      H1            -30.0667487078       17.1108636235       26.6952958414  W2        8355            0.0000000000
     25065      8355  TIP3      H2            -30.8558487078       17.3437636235       25.4244958414  W2        8355            0.0000000000
     25066      8356  TIP3      OH2           -26.7425087078       17.0778436235        7.7295558414  W2        8356            0.0000000000
     25067      8356  TIP3      H1            -27.3864087078       16.4467036235        8.0509258414  W2        8356            0.0000000000
     25068      8356  TIP3      H2            -25.9806787078       16.5466436235        7.4979058414  W2        8356            0.0000000000
     25069      8357  TIP3      OH2           -24.2575987078       15.9498936235       25.0835258414  W2        8357            0.0000000000
     25070      8357  TIP3      H1            -24.6086487078       15.0931936235       25.3265658414  W2        8357            0.0000000000
     25071      8357  TIP3      H2            -23.5312787078       16.0925636235       25.6904258414  W2        8357            0.0000000000
     25072      8358  TIP3      OH2           -22.1382187078       16.8948336235        7.9633558414  W2        8358            0.0000000000
     25073      8358  TIP3      H1            -21.8551787078       16.1003536235        8.4160458414  W2        8358            0.0000000000
     25074      8358  TIP3      H2            -21.3984287078       17.1279336235        7.4024658414  W2        8358            0.0000000000
     25075      8359  TIP3      OH2           -35.5248587078       12.4607536235       25.6883858414  W2        8359            0.0000000000
     25076      8359  TIP3      H1            -35.3808087078       11.5588236235       25.4020558414  W2        8359            0.0000000000
     25077      8359  TIP3      H2            -36.2971187078       12.7469636235       25.2006158414  W2        8359            0.0000000000
     25078      8360  TIP3      OH2           -31.1834887078       12.8043236235        7.8208458414  W2        8360            0.0000000000
     25079      8360  TIP3      H1            -31.1190787078       12.0102836235        8.3514858414  W2        8360            0.0000000000
     25080      8360  TIP3      H2            -30.5305687078       12.6856036235        7.1310458414  W2        8360            0.0000000000
     25081      8361  TIP3      OH2           -28.8692487078       12.4305636235       25.1210258414  W2        8361            0.0000000000
     25082      8361  TIP3      H1            -29.1978687078       12.7013736235       24.2637658414  W2        8361            0.0000000000
     25083      8361  TIP3      H2            -28.7174287078       11.4895436235       25.0335258414  W2        8361            0.0000000000
     25084      8362  TIP3      OH2           -25.8311487078       13.8514936235        7.5566458414  W2        8362            0.0000000000
     25085      8362  TIP3      H1            -26.0997387078       14.0317036235        8.4575358414  W2        8362            0.0000000000
     25086      8362  TIP3      H2            -26.0375887078       12.9261136235        7.4252258414  W2        8362            0.0000000000
     25087      8363  TIP3      OH2           -23.1347287078       12.3462936235       22.5042558414  W2        8363            0.0000000000
     25088      8363  TIP3      H1            -22.3892487078       12.9346636235       22.3846558414  W2        8363            0.0000000000
     25089      8363  TIP3      H2            -23.8920487078       12.9282636235       22.5675658414  W2        8363            0.0000000000
     25090      8364  TIP3      OH2           -34.6922087078        9.6610836235       25.1083158414  W2        8364            0.0000000000
     25091      8364  TIP3      H1            -34.2840887078        8.8037436235       24.9873758414  W2        8364            0.0000000000
     25092      8364  TIP3      H2            -34.9524487078        9.6752136235       26.0293458414  W2        8364            0.0000000000
     25093      8365  TIP3      OH2           -30.0341087078       10.7769436235       10.1266458414  W2        8365            0.0000000000
     25094      8365  TIP3      H1            -30.4939087078       10.2927736235       10.8124958414  W2        8365            0.0000000000
     25095      8365  TIP3      H2            -29.7792387078       10.1084836235        9.4906958414  W2        8365            0.0000000000
     25096      8366  TIP3      OH2           -30.7451787078        8.6696536235       22.4826058414  W2        8366            0.0000000000
     25097      8366  TIP3      H1            -31.3635687078        9.3443136235       22.7630758414  W2        8366            0.0000000000
     25098      8366  TIP3      H2            -30.4010587078        8.9910436235       21.6492258414  W2        8366            0.0000000000
     25099      8367  TIP3      OH2           -28.9630687078        9.0201236235        8.3889658414  W2        8367            0.0000000000
     25100      8367  TIP3      H1            -29.1435687078        8.8652436235        7.4617958414  W2        8367            0.0000000000
     25101      8367  TIP3      H2            -28.0130187078        9.1279936235        8.4337558414  W2        8367            0.0000000000
     25102      8368  TIP3      OH2           -25.7253587078       11.1411836235       25.7600858414  W2        8368            0.0000000000
     25103      8368  TIP3      H1            -24.7722387078       11.2250936235       25.7326858414  W2        8368            0.0000000000
     25104      8368  TIP3      H2            -25.8858987078       10.4293636235       26.3795758414  W2        8368            0.0000000000
     25105      8369  TIP3      OH2           -19.5732387078       11.3745436235        7.8347758414  W2        8369            0.0000000000
     25106      8369  TIP3      H1            -19.8467587078       10.9500936235        7.0216058414  W2        8369            0.0000000000
     25107      8369  TIP3      H2            -19.5338287078       12.3059936235        7.6178158414  W2        8369            0.0000000000
     25108      8370  TIP3      OH2           -30.4058087078        6.0247336235       23.5649158414  W2        8370            0.0000000000
     25109      8370  TIP3      H1            -30.2557187078        5.2958636235       22.9628858414  W2        8370            0.0000000000
     25110      8370  TIP3      H2            -30.4035687078        6.8019036235       23.0061358414  W2        8370            0.0000000000
     25111      8371  TIP3      OH2           -29.9932387078        4.3943136235       21.0576558414  W2        8371            0.0000000000
     25112      8371  TIP3      H1            -29.4574887078        4.8459836235       20.4055858414  W2        8371            0.0000000000
     25113      8371  TIP3      H2            -30.8452787078        4.2862936235       20.6350658414  W2        8371            0.0000000000
     25114      8372  TIP3      OH2           -28.4113987078        9.8339336235       21.2971758414  W2        8372            0.0000000000
     25115      8372  TIP3      H1            -27.6609187078        9.6776836235       20.7239558414  W2        8372            0.0000000000
     25116      8372  TIP3      H2            -28.7505687078       10.6855936235       21.0217258414  W2        8372            0.0000000000
     25117      8373  TIP3      OH2           -23.9957787078        7.6491136235       26.3257058414  W2        8373            0.0000000000
     25118      8373  TIP3      H1            -23.8036487078        6.7180536235       26.2141558414  W2        8373            0.0000000000
     25119      8373  TIP3      H2            -23.1381487078        8.0740636235       26.3152458414  W2        8373            0.0000000000
     25120      8374  TIP3      OH2           -22.6790587078       10.4376336235       24.4029758414  W2        8374            0.0000000000
     25121      8374  TIP3      H1            -22.9605587078       11.1470936235       23.8253558414  W2        8374            0.0000000000
     25122      8374  TIP3      H2            -21.7366287078       10.3649336235       24.2520958414  W2        8374            0.0000000000
     25123      8375  TIP3      OH2           -31.9271787078        7.2230836235       25.4764758414  W2        8375            0.0000000000
     25124      8375  TIP3      H1            -32.6942787078        6.6905636235       25.2662358414  W2        8375            0.0000000000
     25125      8375  TIP3      H2            -31.2482787078        6.9131236235       24.8771058414  W2        8375            0.0000000000
     25126      8376  TIP3      OH2           -29.1876887078        1.8508836235       21.4890158414  W2        8376            0.0000000000
     25127      8376  TIP3      H1            -29.2857287078        2.7972036235       21.3836358414  W2        8376            0.0000000000
     25128      8376  TIP3      H2            -29.9300687078        1.4782636235       21.0133658414  W2        8376            0.0000000000
     25129      8377  TIP3      OH2           -27.9236387078        6.1724236235       25.0528558414  W2        8377            0.0000000000
     25130      8377  TIP3      H1            -28.1590987078        5.9530936235       25.9543458414  W2        8377            0.0000000000
     25131      8377  TIP3      H2            -28.7069487078        5.9655436235       24.5431058414  W2        8377            0.0000000000
     25132      8378  TIP3      OH2           -25.2079787078        5.2997736235       24.1282058414  W2        8378            0.0000000000
     25133      8378  TIP3      H1            -26.1554387078        5.3317436235       24.2605358414  W2        8378            0.0000000000
     25134      8378  TIP3      H2            -24.8953087078        4.6744836235       24.7820258414  W2        8378            0.0000000000
     25135      8379  TIP3      OH2           -23.5738287078        3.9338836235       26.1333958414  W2        8379            0.0000000000
     25136      8379  TIP3      H1            -23.6706487078        2.9816136235       26.1275858414  W2        8379            0.0000000000
     25137      8379  TIP3      H2            -23.8955187078        4.2025636235       26.9939458414  W2        8379            0.0000000000
     25138      8380  TIP3      OH2           -33.7468987078        5.1434636235       25.1809458414  W2        8380            0.0000000000
     25139      8380  TIP3      H1            -33.5351587078        4.4370736235       24.5706958414  W2        8380            0.0000000000
     25140      8380  TIP3      H2            -33.8581487078        4.7060636235       26.0250658414  W2        8380            0.0000000000
     25141      8381  TIP3      OH2           -28.9658787078        1.1446236235       24.1602958414  W2        8381            0.0000000000
     25142      8381  TIP3      H1            -28.2540387078        0.5048436235       24.1462058414  W2        8381            0.0000000000
     25143      8381  TIP3      H2            -29.0668387078        1.4114536235       23.2466058414  W2        8381            0.0000000000
     25144      8382  TIP3      OH2           -28.6121287078        2.8274636235       26.2139258414  W2        8382            0.0000000000
     25145      8382  TIP3      H1            -28.7439087078        2.3518436235       25.3937758414  W2        8382            0.0000000000
     25146      8382  TIP3      H2            -29.2113887078        3.5718236235       26.1586358414  W2        8382            0.0000000000
     25147      8383  TIP3      OH2           -29.0658987078       19.7104936235        9.3903258414  W2        8383            0.0000000000
     25148      8383  TIP3      H1            -28.1328287078       19.8683636235        9.5341658414  W2        8383            0.0000000000
     25149      8383  TIP3      H2            -29.3300187078       20.3857936235        8.7654758414  W2        8383            0.0000000000
     25150      8384  TIP3      OH2           -35.4974087078       14.3468736235        8.8731358414  W2        8384            0.0000000000
     25151      8384  TIP3      H1            -34.5834887078       14.4257636235        9.1465258414  W2        8384            0.0000000000
     25152      8384  TIP3      H2            -35.4900987078       13.6598336235        8.2066958414  W2        8384            0.0000000000
     25153      8385  TIP3      OH2           -36.8483487078       19.7397236235       13.9505258414  W2        8385            0.0000000000
     25154      8385  TIP3      H1            -37.4956387078       19.2778936235       13.4176458414  W2        8385            0.0000000000
     25155      8385  TIP3      H2            -36.4938887078       19.0680536235       14.5331458414  W2        8385            0.0000000000
     25156      8386  TIP3      OH2           -35.9784287078       17.8204236235       15.7551458414  W2        8386            0.0000000000
     25157      8386  TIP3      H1            -36.3127487078       16.9401536235       15.9271658414  W2        8386            0.0000000000
     25158      8386  TIP3      H2            -35.7561887078       18.1659236235       16.6197058414  W2        8386            0.0000000000
     25159      8387  TIP3      OH2           -18.4299487078       18.6300636235       18.7356258414  W2        8387            0.0000000000
     25160      8387  TIP3      H1            -18.4512787078       18.8149036235       19.6745658414  W2        8387            0.0000000000
     25161      8387  TIP3      H2            -17.7393287078       19.1984636235       18.3947658414  W2        8387            0.0000000000
     25162      8388  TIP3      OH2           -18.8666587078       18.1971736235       21.6575358414  W2        8388            0.0000000000
     25163      8388  TIP3      H1            -19.3537887078       17.4615836235       21.2862758414  W2        8388            0.0000000000
     25164      8388  TIP3      H2            -18.3173887078       17.8035636235       22.3354758414  W2        8388            0.0000000000
     25165      8389  TIP3      OH2           -20.4159287078       13.9869836235       26.2955658414  W2        8389            0.0000000000
     25166      8389  TIP3      H1            -21.2818187078       13.8819536235       26.6897958414  W2        8389            0.0000000000
     25167      8389  TIP3      H2            -20.0393387078       14.7453136235       26.7420358414  W2        8389            0.0000000000
     25168      8390  TIP3      OH2           -19.1149587078       12.2433536235       11.8098158414  W2        8390            0.0000000000
     25169      8390  TIP3      H1            -18.2648187078       12.6644436235       11.9369758414  W2        8390            0.0000000000
     25170      8390  TIP3      H2            -19.1094487078       11.5033636235       12.4169558414  W2        8390            0.0000000000
     25171      8391  TIP3      OH2           -18.7203987078       10.2970936235       13.6333858414  W2        8391            0.0000000000
     25172      8391  TIP3      H1            -19.4469387078        9.8173536235       14.0311458414  W2        8391            0.0000000000
     25173      8391  TIP3      H2            -18.1390687078       10.5025636235       14.3655458414  W2        8391            0.0000000000
     25174      8392  TIP3      OH2           -18.9612787078       13.0818436235       18.5811458414  W2        8392            0.0000000000
     25175      8392  TIP3      H1            -18.1278587078       12.7038436235       18.3005058414  W2        8392            0.0000000000
     25176      8392  TIP3      H2            -18.8492487078       14.0249636235       18.4620558414  W2        8392            0.0000000000
     25177      8393  TIP3      OH2           -20.4750487078       15.9595936235       20.8879858414  W2        8393            0.0000000000
     25178      8393  TIP3      H1            -21.1225187078       16.2847436235       21.5135058414  W2        8393            0.0000000000
     25179      8393  TIP3      H2            -20.9926487078       15.5193636235       20.2138158414  W2        8393            0.0000000000
     25180      8394  TIP3      OH2           -18.4520887078       10.1979436235       10.0245158414  W2        8394            0.0000000000
     25181      8394  TIP3      H1            -18.9739787078       10.5543536235        9.3056058414  W2        8394            0.0000000000
     25182      8394  TIP3      H2            -18.4851687078       10.8727236235       10.7026058414  W2        8394            0.0000000000
     25183      8395  TIP3      OH2           -20.1031887078        7.4375036235        8.5752258414  W2        8395            0.0000000000
     25184      8395  TIP3      H1            -20.0067487078        8.1042036235        7.8951958414  W2        8395            0.0000000000
     25185      8395  TIP3      H2            -20.2432287078        6.6221336235        8.0937758414  W2        8395            0.0000000000
     25186      8396  TIP3      OH2           -20.9337187078        8.8177436235       14.1962558414  W2        8396            0.0000000000
     25187      8396  TIP3      H1            -21.0838387078        7.8726036235       14.1760358414  W2        8396            0.0000000000
     25188      8396  TIP3      H2            -21.2872687078        9.0988836235       15.0401658414  W2        8396            0.0000000000
     25189      8397  TIP3      OH2           -35.8984787078       10.8959636235       18.2066358414  W2        8397            0.0000000000
     25190      8397  TIP3      H1            -35.7141887078       10.8141336235       17.2709258414  W2        8397            0.0000000000
     25191      8397  TIP3      H2            -35.0491887078       10.7716636235       18.6302758414  W2        8397            0.0000000000
     25192      8398  TIP3      OH2           -20.0774287078       10.7880736235       23.8350858414  W2        8398            0.0000000000
     25193      8398  TIP3      H1            -19.4946987078       10.0533036235       24.0268058414  W2        8398            0.0000000000
     25194      8398  TIP3      H2            -19.5134987078       11.5601036235       23.8816658414  W2        8398            0.0000000000
     25195      8399  TIP3      OH2           -18.5807187078        8.6906536235       24.5196258414  W2        8399            0.0000000000
     25196      8399  TIP3      H1            -19.4440487078        8.3118636235       24.3540958414  W2        8399            0.0000000000
     25197      8399  TIP3      H2            -17.9763487078        7.9521336235       24.4452058414  W2        8399            0.0000000000
     25198      8400  TIP3      OH2           -20.8558087078        4.8454836235        7.6927758414  W2        8400            0.0000000000
     25199      8400  TIP3      H1            -20.2452287078        4.4741636235        8.3295958414  W2        8400            0.0000000000
     25200      8400  TIP3      H2            -21.6926587078        4.4241736235        7.8887758414  W2        8400            0.0000000000
     25201      8401  TIP3      OH2           -21.2232387078        6.4003236235       12.6587658414  W2        8401            0.0000000000
     25202      8401  TIP3      H1            -20.9435287078        5.4933636235       12.7829358414  W2        8401            0.0000000000
     25203      8401  TIP3      H2            -20.4640687078        6.8344736235       12.2696858414  W2        8401            0.0000000000
     25204      8402  TIP3      OH2           -20.6114087078        6.9820636235       18.0946558414  W2        8402            0.0000000000
     25205      8402  TIP3      H1            -19.6786087078        7.1940536235       18.0602558414  W2        8402            0.0000000000
     25206      8402  TIP3      H2            -20.8466587078        7.0832736235       19.0169558414  W2        8402            0.0000000000
     25207      8403  TIP3      OH2           -20.5822187078        7.7185936235       20.8705958414  W2        8403            0.0000000000
     25208      8403  TIP3      H1            -21.4250887078        7.9866336235       21.2365758414  W2        8403            0.0000000000
     25209      8403  TIP3      H2            -20.1397887078        8.5407836235       20.6597058414  W2        8403            0.0000000000
     25210      8404  TIP3      OH2           -36.3009987078        6.1664636235       24.3475158414  W2        8404            0.0000000000
     25211      8404  TIP3      H1            -35.3815087078        6.0442936235       24.5838258414  W2        8404            0.0000000000
     25212      8404  TIP3      H2            -36.7505487078        5.4164336235       24.7368658414  W2        8404            0.0000000000
     25213      8405  TIP3      OH2           -18.2990587078        1.6986136235       26.2240958414  W2        8405            0.0000000000
     25214      8405  TIP3      H1            -17.9493587078        1.0449636235       25.6185658414  W2        8405            0.0000000000
     25215      8405  TIP3      H2            -18.1521087078        2.5360236235       25.7843558414  W2        8405            0.0000000000
     25216      8406  TIP3      OH2           -20.6097587078        3.6632536235       12.7069658414  W2        8406            0.0000000000
     25217      8406  TIP3      H1            -20.4272587078        3.2144036235       13.5324658414  W2        8406            0.0000000000
     25218      8406  TIP3      H2            -21.2094687078        3.0786936235       12.2434258414  W2        8406            0.0000000000
     25219      8407  TIP3      OH2           -35.0797487078        4.4786236235       17.2388058414  W2        8407            0.0000000000
     25220      8407  TIP3      H1            -34.6345887078        3.6868736235       17.5407758414  W2        8407            0.0000000000
     25221      8407  TIP3      H2            -34.6134487078        5.1951436235       17.6693658414  W2        8407            0.0000000000
     25222      8408  TIP3      OH2           -36.7757187078        7.4779236235       18.3078258414  W2        8408            0.0000000000
     25223      8408  TIP3      H1            -36.2837387078        7.2569736235       17.5170258414  W2        8408            0.0000000000
     25224      8408  TIP3      H2            -36.4136287078        8.3182636235       18.5887758414  W2        8408            0.0000000000
     25225      8409  TIP3      OH2           -18.7793387078        3.8080736235       24.5732258414  W2        8409            0.0000000000
     25226      8409  TIP3      H1            -19.6967687078        4.0787836235       24.5375758414  W2        8409            0.0000000000
     25227      8409  TIP3      H2            -18.6563987078        3.2729136235       23.7891958414  W2        8409            0.0000000000
     25228      8410  TIP3      OH2           -18.7431387078        3.7310636235        9.2349958414  W2        8410            0.0000000000
     25229      8410  TIP3      H1            -18.3308787078        3.0096336235        8.7597958414  W2        8410            0.0000000000
     25230      8410  TIP3      H2            -18.0614887078        4.4005236235        9.2934258414  W2        8410            0.0000000000
     25231      8411  TIP3      OH2           -36.4620687078        3.7358336235       12.3620658414  W2        8411            0.0000000000
     25232      8411  TIP3      H1            -37.3872287078        3.9444936235       12.2326158414  W2        8411            0.0000000000
     25233      8411  TIP3      H2            -36.0080787078        4.2199136235       11.6722958414  W2        8411            0.0000000000
     25234      8412  TIP3      OH2           -21.6913487078       18.7200036235       14.3078058414  W2        8412            0.0000000000
     25235      8412  TIP3      H1            -21.0390587078       18.3722136235       13.6997158414  W2        8412            0.0000000000
     25236      8412  TIP3      H2            -21.1809687078       19.2083236235       14.9537758414  W2        8412            0.0000000000
     25237      8413  TIP3      OH2           -36.4985287078        2.4737336235       20.7063158414  W2        8413            0.0000000000
     25238      8413  TIP3      H1            -37.1634787078        2.2277636235       21.3494058414  W2        8413            0.0000000000
     25239      8413  TIP3      H2            -36.9413987078        3.0957736235       20.1291158414  W2        8413            0.0000000000
     25240      8414  TIP3      OH2           -34.3065987078       15.6491436235       24.8508958414  W2        8414            0.0000000000
     25241      8414  TIP3      H1            -35.1273487078       15.8237936235       24.3903658414  W2        8414            0.0000000000
     25242      8414  TIP3      H2            -34.5588187078       15.5756136235       25.7713358414  W2        8414            0.0000000000
     25243      8415  TIP3      OH2           -31.3523087078       16.6232636235       21.1092958414  W2        8415            0.0000000000
     25244      8415  TIP3      H1            -31.7771987078       17.4331136235       20.8267558414  W2        8415            0.0000000000
     25245      8415  TIP3      H2            -30.4480287078       16.7086736235       20.8072758414  W2        8415            0.0000000000
     25246      8416  TIP3      OH2           -27.0411687078       18.0222636235       24.0686658414  W2        8416            0.0000000000
     25247      8416  TIP3      H1            -26.8564187078       17.6888736235       24.9466958414  W2        8416            0.0000000000
     25248      8416  TIP3      H2            -26.1947187078       18.3321236235       23.7465858414  W2        8416            0.0000000000
     25249      8417  TIP3      OH2           -24.6961287078       19.3081536235       23.3128058414  W2        8417            0.0000000000
     25250      8417  TIP3      H1            -24.0192387078       18.6753836235       23.0727258414  W2        8417            0.0000000000
     25251      8417  TIP3      H2            -24.3742487078       19.7092036235       24.1201358414  W2        8417            0.0000000000
     25252      8418  TIP3      OH2           -19.7787487078        1.8977036235       22.3923058414  W2        8418            0.0000000000
     25253      8418  TIP3      H1            -20.5913987078        2.2227336235       22.0047758414  W2        8418            0.0000000000
     25254      8418  TIP3      H2            -19.5458987078        1.1375536235       21.8592158414  W2        8418            0.0000000000
     25255      8419  TIP3      OH2           -33.9506387078       19.8796536235       21.1568258414  W2        8419            0.0000000000
     25256      8419  TIP3      H1            -34.6709987078       20.3197536235       20.7055958414  W2        8419            0.0000000000
     25257      8419  TIP3      H2            -34.3162387078       19.6291236235       22.0052258414  W2        8419            0.0000000000
     25258      8420  TIP3      OH2           -31.4833787078       19.4800436235       20.1865458414  W2        8420            0.0000000000
     25259      8420  TIP3      H1            -32.3481587078       19.5518936235       20.5905558414  W2        8420            0.0000000000
     25260      8420  TIP3      H2            -31.5384787078       20.0267736235       19.4027958414  W2        8420            0.0000000000
     25261      8421  TIP3      OH2           -26.7728187078       19.3679336235       19.3621458414  W2        8421            0.0000000000
     25262      8421  TIP3      H1            -27.2294187078       19.8969036235       18.7079858414  W2        8421            0.0000000000
     25263      8421  TIP3      H2            -26.6100187078       19.9710736235       20.0873758414  W2        8421            0.0000000000
     25264      8422  TIP3      OH2           -24.4451887078       18.2458936235       20.3071758414  W2        8422            0.0000000000
     25265      8422  TIP3      H1            -25.3498187078       18.4109136235       20.0413858414  W2        8422            0.0000000000
     25266      8422  TIP3      H2            -24.0163287078       19.0991136235       20.2415158414  W2        8422            0.0000000000
     25267      8423  TIP3      OH2           -21.8409987078       19.8158036235       20.6019558414  W2        8423            0.0000000000
     25268      8423  TIP3      H1            -22.0227987078       20.7316936235       20.3914458414  W2        8423            0.0000000000
     25269      8423  TIP3      H2            -21.6642187078       19.4055136235       19.7554158414  W2        8423            0.0000000000
     25270      8424  TIP3      OH2           -34.5358287078       18.5029036235       18.0670058414  W2        8424            0.0000000000
     25271      8424  TIP3      H1            -34.5542287078       18.0774136235       18.9242358414  W2        8424            0.0000000000
     25272      8424  TIP3      H2            -33.7310387078       18.1844036235       17.6582258414  W2        8424            0.0000000000
     25273      8425  TIP3      OH2           -32.3945187078       17.2127736235       16.7219958414  W2        8425            0.0000000000
     25274      8425  TIP3      H1            -32.6134487078       16.2965136235       16.8915958414  W2        8425            0.0000000000
     25275      8425  TIP3      H2            -31.5702987078       17.3528136235       17.1881358414  W2        8425            0.0000000000
     25276      8426  TIP3      OH2           -29.8572687078       17.6827036235       17.5707958414  W2        8426            0.0000000000
     25277      8426  TIP3      H1            -29.6446987078       16.7946036235       17.2838858414  W2        8426            0.0000000000
     25278      8426  TIP3      H2            -29.7927587078       17.6484736235       18.5251958414  W2        8426            0.0000000000
     25279      8427  TIP3      OH2           -26.3488987078        3.3467636235       16.7151258414  W2        8427            0.0000000000
     25280      8427  TIP3      H1            -27.0232187078        2.7173236235       16.9707058414  W2        8427            0.0000000000
     25281      8427  TIP3      H2            -25.7849787078        2.8626536235       16.1119158414  W2        8427            0.0000000000
     25282      8428  TIP3      OH2           -21.2061787078        1.4541636235       16.8278358414  W2        8428            0.0000000000
     25283      8428  TIP3      H1            -20.6024187078        2.0017036235       16.3259358414  W2        8428            0.0000000000
     25284      8428  TIP3      H2            -22.0759787078        1.7732036235       16.5872458414  W2        8428            0.0000000000
     25285      8429  TIP3      OH2           -19.4791387078        2.5930336235       15.1609258414  W2        8429            0.0000000000
     25286      8429  TIP3      H1            -18.8673887078        2.0786036235       14.6342858414  W2        8429            0.0000000000
     25287      8429  TIP3      H2            -19.0967987078        3.4702436235       15.1843658414  W2        8429            0.0000000000
     25288      8430  TIP3      OH2           -34.0221487078        1.9807936235       14.5371158414  W2        8430            0.0000000000
     25289      8430  TIP3      H1            -34.7991687078        1.7462836235       14.0297058414  W2        8430            0.0000000000
     25290      8430  TIP3      H2            -33.4917887078        1.1840036235       14.5459158414  W2        8430            0.0000000000
     25291      8431  TIP3      OH2           -35.1858087078        1.7786036235       10.3407258414  W2        8431            0.0000000000
     25292      8431  TIP3      H1            -34.7467387078        2.3896536235        9.7490758414  W2        8431            0.0000000000
     25293      8431  TIP3      H2            -35.8195687078        2.3170136235       10.8147258414  W2        8431            0.0000000000
     25294      8432  TIP3      OH2           -29.4428887078        1.9075036235       14.3504258414  W2        8432            0.0000000000
     25295      8432  TIP3      H1            -28.5685487078        2.2959336235       14.3208558414  W2        8432            0.0000000000
     25296      8432  TIP3      H2            -29.5788087078        1.6922836235       15.2731458414  W2        8432            0.0000000000
     25297      8433  TIP3      OH2           -23.8860487078        1.9374836235       15.9995958414  W2        8433            0.0000000000
     25298      8433  TIP3      H1            -23.8098887078        2.0326436235       15.0501958414  W2        8433            0.0000000000
     25299      8433  TIP3      H2            -24.1611287078        1.0297736235       16.1285058414  W2        8433            0.0000000000
     25300      8434  TIP3      OH2           -22.5327887078        1.9632636235       11.6920958414  W2        8434            0.0000000000
     25301      8434  TIP3      H1            -23.2356787078        2.5781836235       11.4822358414  W2        8434            0.0000000000
     25302      8434  TIP3      H2            -22.9776487078        1.1259336235       11.8231858414  W2        8434            0.0000000000
     25303      8435  TIP3      OH2           -35.2848587078       17.7268236235       11.2382358414  W2        8435            0.0000000000
     25304      8435  TIP3      H1            -35.9698687078       17.6887136235       10.5707458414  W2        8435            0.0000000000
     25305      8435  TIP3      H2            -35.2811387078       18.6395836235       11.5264458414  W2        8435            0.0000000000
     25306      8436  TIP3      OH2           -33.3248987078        3.6947536235        8.7831358414  W2        8436            0.0000000000
     25307      8436  TIP3      H1            -32.8335587078        3.0649936235        8.2556858414  W2        8436            0.0000000000
     25308      8436  TIP3      H2            -32.7012687078        3.9906936235        9.4462558414  W2        8436            0.0000000000
     25309      8437  TIP3      OH2           -28.2988887078        3.9879036235       11.2401858414  W2        8437            0.0000000000
     25310      8437  TIP3      H1            -28.1207587078        3.3412236235       11.9230458414  W2        8437            0.0000000000
     25311      8437  TIP3      H2            -28.3522687078        4.8216736235       11.7072958414  W2        8437            0.0000000000
     25312      8438  TIP3      OH2           -26.4205087078       18.9363136235        9.6358558414  W2        8438            0.0000000000
     25313      8438  TIP3      H1            -25.5544887078       19.3030536235        9.4576758414  W2        8438            0.0000000000
     25314      8438  TIP3      H2            -26.6672287078       18.4971136235        8.8219358414  W2        8438            0.0000000000
     25315      8439  TIP3      OH2           -19.7115487078       18.4993436235       12.3149658414  W2        8439            0.0000000000
     25316      8439  TIP3      H1            -19.9058387078       17.7515536235       11.7499258414  W2        8439            0.0000000000
     25317      8439  TIP3      H2            -19.7505387078       19.2573536235       11.7317558414  W2        8439            0.0000000000
     25318      8440  TIP3      OH2           -34.0643487078        2.4949836235       24.0547358414  W2        8440            0.0000000000
     25319      8440  TIP3      H1            -34.4305287078        1.7292436235       24.4972058414  W2        8440            0.0000000000
     25320      8440  TIP3      H2            -33.1514987078        2.5240036235       24.3412458414  W2        8440            0.0000000000
     25321      8441  TIP3      OH2           -32.0912687078        1.8454236235       25.5904458414  W2        8441            0.0000000000
     25322      8441  TIP3      H1            -31.1929087078        1.5714436235       25.4057858414  W2        8441            0.0000000000
     25323      8441  TIP3      H2            -32.4779587078        1.1030236235       26.0547058414  W2        8441            0.0000000000
     25324      8442  TIP3      OH2           -33.4667387078       18.6469036235        8.2634458414  W2        8442            0.0000000000
     25325      8442  TIP3      H1            -33.7342787078       18.9331936235        9.1367558414  W2        8442            0.0000000000
     25326      8442  TIP3      H2            -32.6954787078       18.1008236235        8.4156958414  W2        8442            0.0000000000
     25327      8443  TIP3      OH2           -23.6700387078        1.1779536235       25.7727258414  W2        8443            0.0000000000
     25328      8443  TIP3      H1            -23.5933187078        0.7520236235       26.6264958414  W2        8443            0.0000000000
     25329      8443  TIP3      H2            -22.7763787078        1.1914236235       25.4300758414  W2        8443            0.0000000000
     25330      8444  TIP3      OH2           -20.4939287078       17.2505836235       24.4651458414  W2        8444            0.0000000000
     25331      8444  TIP3      H1            -21.2757387078       17.0643836235       23.9452058414  W2        8444            0.0000000000
     25332      8444  TIP3      H2            -20.5659387078       18.1800136235       24.6823958414  W2        8444            0.0000000000
     25333      8445  TIP3      OH2            -6.0878887078       11.1370236235       14.4958658414  W2        8445            0.0000000000
     25334      8445  TIP3      H1             -5.9987787078       12.0808436235       14.3635758414  W2        8445            0.0000000000
     25335      8445  TIP3      H2             -6.7261287078       10.8616636235       13.8378058414  W2        8445            0.0000000000
     25336      8446  TIP3      OH2            -7.1547587078       10.3920936235       17.9146858414  W2        8446            0.0000000000
     25337      8446  TIP3      H1             -7.1930087078        9.7457236235       18.6196458414  W2        8446            0.0000000000
     25338      8446  TIP3      H2             -7.4771087078        9.9255336235       17.1435558414  W2        8446            0.0000000000
     25339      8447  TIP3      OH2           -14.7862587078       10.0063036235       19.5076758414  W2        8447            0.0000000000
     25340      8447  TIP3      H1            -14.7450487078        9.3806336235       20.2309158414  W2        8447            0.0000000000
     25341      8447  TIP3      H2            -14.0834887078       10.6301636235       19.6897158414  W2        8447            0.0000000000
     25342      8448  TIP3      OH2            -3.4487387078       13.3311336235       16.2161958414  W2        8448            0.0000000000
     25343      8448  TIP3      H1             -3.8894687078       12.6107336235       16.6667558414  W2        8448            0.0000000000
     25344      8448  TIP3      H2             -3.4617687078       14.0518536235       16.8459658414  W2        8448            0.0000000000
     25345      8449  TIP3      OH2           -13.8629487078       14.4561936235       18.0425858414  W2        8449            0.0000000000
     25346      8449  TIP3      H1            -14.2324287078       13.6542436235       17.6730158414  W2        8449            0.0000000000
     25347      8449  TIP3      H2            -12.9218387078       14.2876836235       18.0889258414  W2        8449            0.0000000000
     25348      8450  TIP3      OH2           -17.2528987078        8.1164536235       13.4354658414  W2        8450            0.0000000000
     25349      8450  TIP3      H1            -17.7005587078        8.9623236235       13.4171158414  W2        8450            0.0000000000
     25350      8450  TIP3      H2            -17.8137787078        7.5368736235       12.9199758414  W2        8450            0.0000000000
     25351      8451  TIP3      OH2           -16.5422887078       10.2784136235       15.5612658414  W2        8451            0.0000000000
     25352      8451  TIP3      H1            -16.3289387078        9.5085736235       16.0885658414  W2        8451            0.0000000000
     25353      8451  TIP3      H2            -15.8045287078       10.3680836235       14.9580258414  W2        8451            0.0000000000
     25354      8452  TIP3      OH2            -6.3371887078       18.4353036235       16.4282358414  W2        8452            0.0000000000
     25355      8452  TIP3      H1             -5.7175487078       17.7587736235       16.1551558414  W2        8452            0.0000000000
     25356      8452  TIP3      H2             -6.5454487078       18.2173836235       17.3367258414  W2        8452            0.0000000000
     25357      8453  TIP3      OH2            -8.7653187078       12.8242336235       18.3207858414  W2        8453            0.0000000000
     25358      8453  TIP3      H1             -8.4615287078       12.1383736235       17.7261958414  W2        8453            0.0000000000
     25359      8453  TIP3      H2             -8.0439187078       12.9431036235       18.9385858414  W2        8453            0.0000000000
     25360      8454  TIP3      OH2            -0.1023387078        4.4257636235       19.1814058414  W2        8454            0.0000000000
     25361      8454  TIP3      H1             -0.0531187078        5.0358836235       19.9173158414  W2        8454            0.0000000000
     25362      8454  TIP3      H2              0.3231712922        4.8868536235       18.4585158414  W2        8454            0.0000000000
     25363      8455  TIP3      OH2            -5.6246187078        7.2184736235       18.6482658414  W2        8455            0.0000000000
     25364      8455  TIP3      H1             -5.4820287078        6.2721736235       18.6684258414  W2        8455            0.0000000000
     25365      8455  TIP3      H2             -5.7307187078        7.4254536235       17.7197558414  W2        8455            0.0000000000
     25366      8456  TIP3      OH2           -12.4697887078        5.3201136235       15.9207458414  W2        8456            0.0000000000
     25367      8456  TIP3      H1            -12.4266787078        6.1799636235       15.5023758414  W2        8456            0.0000000000
     25368      8456  TIP3      H2            -12.9273787078        4.7675836235       15.2870658414  W2        8456            0.0000000000
     25369      8457  TIP3      OH2            -4.7475187078        5.4506736235       14.3215758414  W2        8457            0.0000000000
     25370      8457  TIP3      H1             -4.1010887078        5.1219936235       14.9463358414  W2        8457            0.0000000000
     25371      8457  TIP3      H2             -4.2375787078        5.9685736235       13.6987158414  W2        8457            0.0000000000
     25372      8458  TIP3      OH2           -15.8496387078        7.7166936235       16.6828858414  W2        8458            0.0000000000
     25373      8458  TIP3      H1            -15.1959787078        7.1668636235       17.1148958414  W2        8458            0.0000000000
     25374      8458  TIP3      H2            -15.8257087078        7.4425936235       15.7660858414  W2        8458            0.0000000000
     25375      8459  TIP3      OH2           -10.6931887078        9.2668236235       15.8980358414  W2        8459            0.0000000000
     25376      8459  TIP3      H1            -10.0770887078        8.7403636235       16.4074358414  W2        8459            0.0000000000
     25377      8459  TIP3      H2            -11.2793087078        8.6266936235       15.4943958414  W2        8459            0.0000000000
     25378      8460  TIP3      OH2             0.2891212922        5.9036836235       21.4173858414  W2        8460            0.0000000000
     25379      8460  TIP3      H1             -0.3994187078        6.5617536235       21.3220458414  W2        8460            0.0000000000
     25380      8460  TIP3      H2              0.3045812922        5.7064736235       22.3539258414  W2        8460            0.0000000000
     25381      8461  TIP3      OH2           -13.6595987078        4.2379536235       19.9948258414  W2        8461            0.0000000000
     25382      8461  TIP3      H1            -13.8784287078        4.7680136235       19.2284258414  W2        8461            0.0000000000
     25383      8461  TIP3      H2            -14.3275087078        4.4645036235       20.6419658414  W2        8461            0.0000000000
     25384      8462  TIP3      OH2            -6.2906187078       13.7380636235       13.5387358414  W2        8462            0.0000000000
     25385      8462  TIP3      H1             -6.5861087078       13.4152936235       12.6874258414  W2        8462            0.0000000000
     25386      8462  TIP3      H2             -6.6148387078       14.6377336235       13.5799958414  W2        8462            0.0000000000
     25387      8463  TIP3      OH2           -11.0904587078       11.9135236235       20.2821958414  W2        8463            0.0000000000
     25388      8463  TIP3      H1            -11.8305487078       12.5116736235       20.3857158414  W2        8463            0.0000000000
     25389      8463  TIP3      H2            -10.3765087078       12.4674836235       19.9665558414  W2        8463            0.0000000000
     25390      8464  TIP3      OH2            -2.9836787078        4.7416036235       16.3021658414  W2        8464            0.0000000000
     25391      8464  TIP3      H1             -3.1988787078        3.9759436235       16.8347658414  W2        8464            0.0000000000
     25392      8464  TIP3      H2             -2.3279387078        5.2140636235       16.8150158414  W2        8464            0.0000000000
     25393      8465  TIP3      OH2           -14.0658687078        6.1301336235       17.9470458414  W2        8465            0.0000000000
     25394      8465  TIP3      H1            -13.4522387078        6.7628936235       18.3202858414  W2        8465            0.0000000000
     25395      8465  TIP3      H2            -13.5537987078        5.6576336235       17.2907358414  W2        8465            0.0000000000
     25396      8466  TIP3      OH2           -12.6830287078       13.8778236235       21.0693458414  W2        8466            0.0000000000
     25397      8466  TIP3      H1            -12.6882687078       14.7571736235       20.6912758414  W2        8466            0.0000000000
     25398      8466  TIP3      H2            -13.5366187078       13.7942336235       21.4943358414  W2        8466            0.0000000000
     25399      8467  TIP3      OH2           -16.5619387078       13.5486136235       11.8512758414  W2        8467            0.0000000000
     25400      8467  TIP3      H1            -16.8338487078       13.7777136235       10.9625658414  W2        8467            0.0000000000
     25401      8467  TIP3      H2            -16.5163687078       14.3864936235       12.3118058414  W2        8467            0.0000000000
     25402      8468  TIP3      OH2            -2.9369687078       15.1702036235       18.5641258414  W2        8468            0.0000000000
     25403      8468  TIP3      H1             -3.8785987078       15.2285936235       18.7258158414  W2        8468            0.0000000000
     25404      8468  TIP3      H2             -2.6603587078       16.0762536235       18.4270958414  W2        8468            0.0000000000
     25405      8469  TIP3      OH2            -2.6362687078        3.4567336235       19.9815158414  W2        8469            0.0000000000
     25406      8469  TIP3      H1             -3.3723487078        4.0674436235       19.9436458414  W2        8469            0.0000000000
     25407      8469  TIP3      H2             -1.9528687078        3.8716336235       19.4551558414  W2        8469            0.0000000000
     25408      8470  TIP3      OH2            -9.6331287078        1.5434636235       17.4473158414  W2        8470            0.0000000000
     25409      8470  TIP3      H1             -9.7507087078        0.5950636235       17.3931458414  W2        8470            0.0000000000
     25410      8470  TIP3      H2            -10.4881187078        1.8760736235       17.7204258414  W2        8470            0.0000000000
     25411      8471  TIP3      OH2            -4.6848487078       16.9515536235       15.1892858414  W2        8471            0.0000000000
     25412      8471  TIP3      H1             -4.2596187078       16.2443436235       14.7042458414  W2        8471            0.0000000000
     25413      8471  TIP3      H2             -4.3678487078       17.7528236235       14.7725058414  W2        8471            0.0000000000
     25414      8472  TIP3      OH2            -3.5251987078       14.8524036235       13.6979458414  W2        8472            0.0000000000
     25415      8472  TIP3      H1             -3.7827187078       14.1624136235       13.0865358414  W2        8472            0.0000000000
     25416      8472  TIP3      H2             -3.4541187078       14.4095236235       14.5435358414  W2        8472            0.0000000000
     25417      8473  TIP3      OH2            -1.8391787078       13.4190736235       22.1752958414  W2        8473            0.0000000000
     25418      8473  TIP3      H1             -1.6995487078       12.8273236235       21.4359958414  W2        8473            0.0000000000
     25419      8473  TIP3      H2             -1.6718987078       14.2916636235       21.8191758414  W2        8473            0.0000000000
     25420      8474  TIP3      OH2            -7.3666387078       10.3810236235       11.9478958414  W2        8474            0.0000000000
     25421      8474  TIP3      H1             -8.0780887078       10.9159936235       11.5959458414  W2        8474            0.0000000000
     25422      8474  TIP3      H2             -6.6756787078       10.4362336235       11.2877858414  W2        8474            0.0000000000
     25423      8475  TIP3      OH2            -7.3127187078        8.8384536235        8.9863958414  W2        8475            0.0000000000
     25424      8475  TIP3      H1             -6.6117287078        8.8611436235        9.6377958414  W2        8475            0.0000000000
     25425      8475  TIP3      H2             -7.0104287078        8.2104236235        8.3303258414  W2        8475            0.0000000000
     25426      8476  TIP3      OH2             0.0027512922        9.7588736235       20.2413358414  W2        8476            0.0000000000
     25427      8476  TIP3      H1             -0.6498387078       10.4534336235       20.3304258414  W2        8476            0.0000000000
     25428      8476  TIP3      H2              0.4677812922        9.9689636235       19.4314958414  W2        8476            0.0000000000
     25429      8477  TIP3      OH2            -3.9608687078       10.5903536235       12.8994858414  W2        8477            0.0000000000
     25430      8477  TIP3      H1             -4.6927687078       10.8187236235       13.4725458414  W2        8477            0.0000000000
     25431      8477  TIP3      H2             -3.5136487078        9.8766236235       13.3542358414  W2        8477            0.0000000000
     25432      8478  TIP3      OH2            -4.0635187078        8.7646136235       21.9671858414  W2        8478            0.0000000000
     25433      8478  TIP3      H1             -3.9836087078        9.5280536235       22.5390358414  W2        8478            0.0000000000
     25434      8478  TIP3      H2             -4.6647487078        9.0438536235       21.2766958414  W2        8478            0.0000000000
     25435      8479  TIP3      OH2           -12.3154987078       11.2209736235       14.7819858414  W2        8479            0.0000000000
     25436      8479  TIP3      H1            -12.6459787078       10.8503136235       13.9636858414  W2        8479            0.0000000000
     25437      8479  TIP3      H2            -11.7270887078       10.5503736235       15.1288158414  W2        8479            0.0000000000
     25438      8480  TIP3      OH2           -10.9487487078       14.6490336235       17.4632058414  W2        8480            0.0000000000
     25439      8480  TIP3      H1            -11.0436187078       14.0703436235       16.7066658414  W2        8480            0.0000000000
     25440      8480  TIP3      H2            -10.2193887078       14.2776036235       17.9594858414  W2        8480            0.0000000000
     25441      8481  TIP3      OH2           -11.9489487078        9.9895336235       18.4154858414  W2        8481            0.0000000000
     25442      8481  TIP3      H1            -11.3836987078       10.1109536235       17.6526058414  W2        8481            0.0000000000
     25443      8481  TIP3      H2            -11.6300587078       10.6270336235       19.0543358414  W2        8481            0.0000000000
     25444      8482  TIP3      OH2            -5.6397287078       15.4927236235       19.1495358414  W2        8482            0.0000000000
     25445      8482  TIP3      H1             -5.8800687078       16.1550336235       19.7974558414  W2        8482            0.0000000000
     25446      8482  TIP3      H2             -5.8379087078       14.6582436235       19.5744958414  W2        8482            0.0000000000
     25447      8483  TIP3      OH2           -11.0688787078       14.3888036235       23.1326758414  W2        8483            0.0000000000
     25448      8483  TIP3      H1            -11.3801287078       15.1711236235       23.5879958414  W2        8483            0.0000000000
     25449      8483  TIP3      H2            -11.7188587078       14.2357136235       22.4468758414  W2        8483            0.0000000000
     25450      8484  TIP3      OH2            -5.0899187078        9.7526436235       10.5846058414  W2        8484            0.0000000000
     25451      8484  TIP3      H1             -4.5103687078        9.9026736235       11.3314958414  W2        8484            0.0000000000
     25452      8484  TIP3      H2             -4.6759187078       10.2233836235        9.8612458414  W2        8484            0.0000000000
     25453      8485  TIP3      OH2           -14.1488887078       10.5869136235       22.3612458414  W2        8485            0.0000000000
     25454      8485  TIP3      H1            -14.0785687078       11.2375936235       23.0597458414  W2        8485            0.0000000000
     25455      8485  TIP3      H2            -15.0396687078       10.6896636235       22.0263358414  W2        8485            0.0000000000
     25456      8486  TIP3      OH2            -7.3634287078       16.4894936235       14.0199158414  W2        8486            0.0000000000
     25457      8486  TIP3      H1             -6.8896687078       16.7851236235       14.7973358414  W2        8486            0.0000000000
     25458      8486  TIP3      H2             -7.9264987078       17.2276536235       13.7868758414  W2        8486            0.0000000000
     25459      8487  TIP3      OH2           -12.8292887078       16.4603036235       23.8960558414  W2        8487            0.0000000000
     25460      8487  TIP3      H1            -12.8217587078       16.3242736235       22.9486058414  W2        8487            0.0000000000
     25461      8487  TIP3      H2            -13.7452487078       16.3431136235       24.1480558414  W2        8487            0.0000000000
     25462      8488  TIP3      OH2            -1.3910787078        1.5026836235       10.3975758414  W2        8488            0.0000000000
     25463      8488  TIP3      H1             -2.2910087078        1.6415836235       10.6926358414  W2        8488            0.0000000000
     25464      8488  TIP3      H2             -1.1392387078        2.3341436235        9.9957458414  W2        8488            0.0000000000
     25465      8489  TIP3      OH2           -13.3252287078       10.2904036235       12.3712658414  W2        8489            0.0000000000
     25466      8489  TIP3      H1            -13.6170987078       11.0585736235       11.8803958414  W2        8489            0.0000000000
     25467      8489  TIP3      H2            -13.9997087078        9.6310236235       12.2084058414  W2        8489            0.0000000000
     25468      8490  TIP3      OH2            -0.2019387078       15.8689236235        8.7739658414  W2        8490            0.0000000000
     25469      8490  TIP3      H1             -0.1285887078       16.8079436235        8.9444958414  W2        8490            0.0000000000
     25470      8490  TIP3      H2              0.7035712922       15.5637836235        8.7176958414  W2        8490            0.0000000000
     25471      8491  TIP3      OH2           -17.2322187078       12.6533236235       21.1862458414  W2        8491            0.0000000000
     25472      8491  TIP3      H1            -17.7333787078       12.6252636235       20.3712158414  W2        8491            0.0000000000
     25473      8491  TIP3      H2            -17.2268487078       11.7476436235       21.4959758414  W2        8491            0.0000000000
     25474      8492  TIP3      OH2           -17.4819487078       15.4337036235       18.0702658414  W2        8492            0.0000000000
     25475      8492  TIP3      H1            -16.5358887078       15.2894036235       18.0512158414  W2        8492            0.0000000000
     25476      8492  TIP3      H2            -17.5943187078       16.2179836235       18.6073858414  W2        8492            0.0000000000
     25477      8493  TIP3      OH2             0.7159012922       16.0996736235       23.7526358414  W2        8493            0.0000000000
     25478      8493  TIP3      H1              0.6665812922       15.1444836235       23.7153958414  W2        8493            0.0000000000
     25479      8493  TIP3      H2             -0.1108687078       16.3672036235       24.1540158414  W2        8493            0.0000000000
     25480      8494  TIP3      OH2            -8.3056987078       15.6735936235       22.6287758414  W2        8494            0.0000000000
     25481      8494  TIP3      H1             -8.2182387078       16.5000536235       23.1036858414  W2        8494            0.0000000000
     25482      8494  TIP3      H2             -9.1691887078       15.3439736235       22.8777058414  W2        8494            0.0000000000
     25483      8495  TIP3      OH2            -7.8911187078       19.4459636235       12.4348358414  W2        8495            0.0000000000
     25484      8495  TIP3      H1             -7.9665187078       19.3246836235       11.4883558414  W2        8495            0.0000000000
     25485      8495  TIP3      H2             -7.8582487078       20.3952336235       12.5532958414  W2        8495            0.0000000000
     25486      8496  TIP3      OH2           -14.2377387078       18.2346636235       14.2157358414  W2        8496            0.0000000000
     25487      8496  TIP3      H1            -14.0856987078       17.8867036235       15.0943858414  W2        8496            0.0000000000
     25488      8496  TIP3      H2            -15.0886987078       17.8783936235       13.9604558414  W2        8496            0.0000000000
     25489      8497  TIP3      OH2            -4.7895187078       18.5999836235        9.4370758414  W2        8497            0.0000000000
     25490      8497  TIP3      H1             -4.4146787078       17.8555936235        8.9663358414  W2        8497            0.0000000000
     25491      8497  TIP3      H2             -4.7851487078       18.3300436235       10.3554058414  W2        8497            0.0000000000
     25492      8498  TIP3      OH2            -5.1207087078       18.5256936235       12.1862958414  W2        8498            0.0000000000
     25493      8498  TIP3      H1             -6.0557287078       18.6258836235       12.3649958414  W2        8498            0.0000000000
     25494      8498  TIP3      H2             -4.8405187078       17.8162936235       12.7646158414  W2        8498            0.0000000000
     25495      8499  TIP3      OH2            -2.1321187078        7.5929236235       24.2328558414  W2        8499            0.0000000000
     25496      8499  TIP3      H1             -2.5394387078        8.0734836235       23.5121858414  W2        8499            0.0000000000
     25497      8499  TIP3      H2             -2.0915487078        6.6875236235       23.9249358414  W2        8499            0.0000000000
     25498      8500  TIP3      OH2           -14.9831687078       13.9768636235       22.2295258414  W2        8500            0.0000000000
     25499      8500  TIP3      H1            -14.7670387078       13.6154236235       23.0891058414  W2        8500            0.0000000000
     25500      8500  TIP3      H2            -15.8386987078       13.6022436235       22.0198758414  W2        8500            0.0000000000
     25501      8501  TIP3      OH2           -12.3643687078        2.4469136235       18.2249458414  W2        8501            0.0000000000
     25502      8501  TIP3      H1            -13.2259987078        2.3597336235       17.8172358414  W2        8501            0.0000000000
     25503      8501  TIP3      H2            -12.3867987078        3.3029236235       18.6527058414  W2        8501            0.0000000000
     25504      8502  TIP3      OH2            -7.7015887078        2.1689536235       21.5996458414  W2        8502            0.0000000000
     25505      8502  TIP3      H1             -7.2812787078        1.7536636235       22.3527058414  W2        8502            0.0000000000
     25506      8502  TIP3      H2             -8.6346287078        1.9902836235       21.7168458414  W2        8502            0.0000000000
     25507      8503  TIP3      OH2            -4.3750987078        5.9244736235       22.4530958414  W2        8503            0.0000000000
     25508      8503  TIP3      H1             -4.8891487078        5.7986936235       23.2506958414  W2        8503            0.0000000000
     25509      8503  TIP3      H2             -4.5306287078        6.8367836235       22.2087158414  W2        8503            0.0000000000
     25510      8504  TIP3      OH2            -3.6126087078       10.7854736235        8.2143958414  W2        8504            0.0000000000
     25511      8504  TIP3      H1             -3.5705287078       10.5628636235        7.2843958414  W2        8504            0.0000000000
     25512      8504  TIP3      H2             -2.7633987078       11.1841836235        8.4043858414  W2        8504            0.0000000000
     25513      8505  TIP3      OH2            -8.0398587078        4.6612936235        8.8847258414  W2        8505            0.0000000000
     25514      8505  TIP3      H1             -8.2933787078        4.6804536235        9.8075358414  W2        8505            0.0000000000
     25515      8505  TIP3      H2             -8.2966487078        3.7898336235        8.5833458414  W2        8505            0.0000000000
     25516      8506  TIP3      OH2           -12.2733587078        7.4123636235       19.3199658414  W2        8506            0.0000000000
     25517      8506  TIP3      H1            -12.9151487078        7.3720936235       20.0289758414  W2        8506            0.0000000000
     25518      8506  TIP3      H2            -12.2361587078        8.3388336235       19.0822658414  W2        8506            0.0000000000
     25519      8507  TIP3      OH2           -12.2764487078        7.6333736235       14.2319658414  W2        8507            0.0000000000
     25520      8507  TIP3      H1            -13.1691587078        7.2929836235       14.1733458414  W2        8507            0.0000000000
     25521      8507  TIP3      H2            -11.8257887078        7.2564636235       13.4762858414  W2        8507            0.0000000000
     25522      8508  TIP3      OH2            -6.7408987078        8.0494036235       13.0490458414  W2        8508            0.0000000000
     25523      8508  TIP3      H1             -7.1498687078        8.8642636235       12.7575258414  W2        8508            0.0000000000
     25524      8508  TIP3      H2             -6.0202787078        7.9094136235       12.4347558414  W2        8508            0.0000000000
     25525      8509  TIP3      OH2            -7.6387387078        8.2250436235       24.5371158414  W2        8509            0.0000000000
     25526      8509  TIP3      H1             -8.2013587078        7.5202036235       24.8578958414  W2        8509            0.0000000000
     25527      8509  TIP3      H2             -6.8123987078        8.1042336235       25.0048758414  W2        8509            0.0000000000
     25528      8510  TIP3      OH2            -5.7361287078        7.4954436235       15.8630158414  W2        8510            0.0000000000
     25529      8510  TIP3      H1             -5.9316787078        8.1011236235       15.1480758414  W2        8510            0.0000000000
     25530      8510  TIP3      H2             -5.5548687078        6.6619636235       15.4286458414  W2        8510            0.0000000000
     25531      8511  TIP3      OH2           -14.5233087078        7.7327136235       21.1871658414  W2        8511            0.0000000000
     25532      8511  TIP3      H1            -14.5613687078        8.1328736235       22.0558758414  W2        8511            0.0000000000
     25533      8511  TIP3      H2            -15.0141987078        6.9159536235       21.2774558414  W2        8511            0.0000000000
     25534      8512  TIP3      OH2           -11.1575687078        5.1069436235        7.9857658414  W2        8512            0.0000000000
     25535      8512  TIP3      H1            -11.5884987078        4.6619536235        8.7155058414  W2        8512            0.0000000000
     25536      8512  TIP3      H2            -11.8756987078        5.4785736235        7.4735158414  W2        8512            0.0000000000
     25537      8513  TIP3      OH2           -17.9152287078        4.8488936235       15.0376358414  W2        8513            0.0000000000
     25538      8513  TIP3      H1            -17.2844587078        4.8201036235       15.7570258414  W2        8513            0.0000000000
     25539      8513  TIP3      H2            -17.4657987078        4.4237636235       14.3072258414  W2        8513            0.0000000000
     25540      8514  TIP3      OH2           -16.6410187078        5.5950936235       10.4616758414  W2        8514            0.0000000000
     25541      8514  TIP3      H1            -16.1668487078        6.1860836235        9.8767658414  W2        8514            0.0000000000
     25542      8514  TIP3      H2            -17.3583787078        6.1253836235       10.8086858414  W2        8514            0.0000000000
     25543      8515  TIP3      OH2            -6.4722087078        9.1335736235       20.5342558414  W2        8515            0.0000000000
     25544      8515  TIP3      H1             -6.1487287078        8.5025436235       19.8913058414  W2        8515            0.0000000000
     25545      8515  TIP3      H2             -6.9122787078        8.5987936235       21.1949958414  W2        8515            0.0000000000
     25546      8516  TIP3      OH2            -9.6949187078        5.0611236235       15.3183758414  W2        8516            0.0000000000
     25547      8516  TIP3      H1            -10.6058087078        5.1178036235       15.6069758414  W2        8516            0.0000000000
     25548      8516  TIP3      H2             -9.1896287078        5.0006736235       16.1290958414  W2        8516            0.0000000000
     25549      8517  TIP3      OH2           -14.8665787078        6.6897536235       14.1451358414  W2        8517            0.0000000000
     25550      8517  TIP3      H1            -15.7557787078        6.7893036235       13.8050958414  W2        8517            0.0000000000
     25551      8517  TIP3      H2            -14.5700887078        5.8480536235       13.7989258414  W2        8517            0.0000000000
     25552      8518  TIP3      OH2           -11.2133987078        6.6900136235       11.8015958414  W2        8518            0.0000000000
     25553      8518  TIP3      H1            -10.2818487078        6.8190136235       11.9799058414  W2        8518            0.0000000000
     25554      8518  TIP3      H2            -11.4283687078        7.3594436235       11.1520658414  W2        8518            0.0000000000
     25555      8519  TIP3      OH2            -5.2897287078        4.2957536235       18.5825558414  W2        8519            0.0000000000
     25556      8519  TIP3      H1             -5.9665687078        4.4270636235       19.2465258414  W2        8519            0.0000000000
     25557      8519  TIP3      H2             -5.7752387078        4.1407036235       17.7723258414  W2        8519            0.0000000000
     25558      8520  TIP3      OH2           -12.5393787078        7.8842336235        9.3682058414  W2        8520            0.0000000000
     25559      8520  TIP3      H1            -13.0818687078        7.5046136235        8.6769658414  W2        8520            0.0000000000
     25560      8520  TIP3      H2            -11.7058887078        8.0787036235        8.9396158414  W2        8520            0.0000000000
     25561      8521  TIP3      OH2            -2.0022187078       19.9672936235       24.8593158414  W2        8521            0.0000000000
     25562      8521  TIP3      H1             -1.8023487078       20.3914836235       24.0248458414  W2        8521            0.0000000000
     25563      8521  TIP3      H2             -1.3468487078       20.3111136235       25.4663558414  W2        8521            0.0000000000
     25564      8522  TIP3      OH2           -14.4042387078       12.4414236235       24.4673658414  W2        8522            0.0000000000
     25565      8522  TIP3      H1            -13.6719987078       12.6960136235       25.0288158414  W2        8522            0.0000000000
     25566      8522  TIP3      H2            -15.1843687078       12.6459636235       24.9829058414  W2        8522            0.0000000000
     25567      8523  TIP3      OH2            -8.3749487078        7.8484236235       17.2053358414  W2        8523            0.0000000000
     25568      8523  TIP3      H1             -7.8106087078        7.3020836235       16.6582958414  W2        8523            0.0000000000
     25569      8523  TIP3      H2             -8.5226087078        7.3266136235       17.9940958414  W2        8523            0.0000000000
     25570      8524  TIP3      OH2           -13.3729787078        3.9850336235       13.6238158414  W2        8524            0.0000000000
     25571      8524  TIP3      H1            -13.6900287078        3.0825636235       13.5883558414  W2        8524            0.0000000000
     25572      8524  TIP3      H2            -12.5915687078        3.9867736235       13.0709758414  W2        8524            0.0000000000
     25573      8525  TIP3      OH2            -9.7483587078        6.2370336235       19.6193758414  W2        8525            0.0000000000
     25574      8525  TIP3      H1            -10.5838287078        6.6909836235       19.7296158414  W2        8525            0.0000000000
     25575      8525  TIP3      H2             -9.2242987078        6.5128836235       20.3713658414  W2        8525            0.0000000000
     25576      8526  TIP3      OH2            -9.2040987078       12.4498036235       11.3040158414  W2        8526            0.0000000000
     25577      8526  TIP3      H1             -9.9489987078       11.9423336235       10.9818058414  W2        8526            0.0000000000
     25578      8526  TIP3      H2             -9.3383787078       12.4986036235       12.2504958414  W2        8526            0.0000000000
     25579      8527  TIP3      OH2            -2.0542087078       11.5826236235       20.0907758414  W2        8527            0.0000000000
     25580      8527  TIP3      H1             -1.4123287078       12.0392536235       19.5469958414  W2        8527            0.0000000000
     25581      8527  TIP3      H2             -2.8845187078       11.6958636235       19.6281858414  W2        8527            0.0000000000
     25582      8528  TIP3      OH2            -5.3064187078        5.2637936235        9.5032758414  W2        8528            0.0000000000
     25583      8528  TIP3      H1             -6.2449987078        5.3753536235        9.3521558414  W2        8528            0.0000000000
     25584      8528  TIP3      H2             -5.0092087078        6.1204836235        9.8098458414  W2        8528            0.0000000000
     25585      8529  TIP3      OH2            -7.6848887078       12.6341336235       22.5409258414  W2        8529            0.0000000000
     25586      8529  TIP3      H1             -8.0302787078       12.2523736235       23.3478858414  W2        8529            0.0000000000
     25587      8529  TIP3      H2             -7.8848787078       13.5674936235       22.6122158414  W2        8529            0.0000000000
     25588      8530  TIP3      OH2            -4.5880687078        7.1310636235       11.1640158414  W2        8530            0.0000000000
     25589      8530  TIP3      H1             -3.6961687078        6.9935636235       11.4831358414  W2        8530            0.0000000000
     25590      8530  TIP3      H2             -4.5317087078        7.9216736235       10.6273658414  W2        8530            0.0000000000
     25591      8531  TIP3      OH2           -14.0792687078       11.7448036235       17.0738058414  W2        8531            0.0000000000
     25592      8531  TIP3      H1            -13.3345487078       11.7423736235       16.4724558414  W2        8531            0.0000000000
     25593      8531  TIP3      H2            -14.0016087078       10.9211836235       17.5553158414  W2        8531            0.0000000000
     25594      8532  TIP3      OH2            -7.0786887078       13.9082336235       10.3294758414  W2        8532            0.0000000000
     25595      8532  TIP3      H1             -7.3738487078       14.7350236235       10.7109558414  W2        8532            0.0000000000
     25596      8532  TIP3      H2             -7.7816887078       13.2889236235       10.5256158414  W2        8532            0.0000000000
     25597      8533  TIP3      OH2           -17.0712987078       10.2054936235       22.3886558414  W2        8533            0.0000000000
     25598      8533  TIP3      H1            -16.8484387078        9.7874536235       23.2204058414  W2        8533            0.0000000000
     25599      8533  TIP3      H2            -17.6732887078        9.5929936235       21.9659358414  W2        8533            0.0000000000
     25600      8534  TIP3      OH2           -10.0548087078        9.7224836235       24.6016258414  W2        8534            0.0000000000
     25601      8534  TIP3      H1            -10.3507287078        9.5567836235       23.7065358414  W2        8534            0.0000000000
     25602      8534  TIP3      H2             -9.1232887078        9.5025136235       24.5910158414  W2        8534            0.0000000000
     25603      8535  TIP3      OH2            -5.4345287078       15.0956836235       22.4914258414  W2        8535            0.0000000000
     25604      8535  TIP3      H1             -6.3350987078       15.2789436235       22.2238158414  W2        8535            0.0000000000
     25605      8535  TIP3      H2             -5.4004187078       15.3546136235       23.4123058414  W2        8535            0.0000000000
     25606      8536  TIP3      OH2             0.2968012922        7.3404736235       10.8586858414  W2        8536            0.0000000000
     25607      8536  TIP3      H1             -0.2575687078        6.9442736235       10.1864358414  W2        8536            0.0000000000
     25608      8536  TIP3      H2              0.3971612922        8.2509936235       10.5810158414  W2        8536            0.0000000000
     25609      8537  TIP3      OH2             0.2600012922       13.1406436235       23.6958358414  W2        8537            0.0000000000
     25610      8537  TIP3      H1             -0.5911487078       13.3790236235       23.3284758414  W2        8537            0.0000000000
     25611      8537  TIP3      H2              0.8503412922       13.1239636235       22.9425458414  W2        8537            0.0000000000
     25612      8538  TIP3      OH2            -1.4080287078       16.1265136235       11.3238958414  W2        8538            0.0000000000
     25613      8538  TIP3      H1             -1.7809187078       15.3008936235       11.6329558414  W2        8538            0.0000000000
     25614      8538  TIP3      H2             -1.1306787078       15.9434536235       10.4262358414  W2        8538            0.0000000000
     25615      8539  TIP3      OH2            -4.2476387078       10.9344636235       18.3450858414  W2        8539            0.0000000000
     25616      8539  TIP3      H1             -5.1759487078       10.7026536235       18.3180158414  W2        8539            0.0000000000
     25617      8539  TIP3      H2             -3.7965287078       10.1574436235       18.0149658414  W2        8539            0.0000000000
     25618      8540  TIP3      OH2           -11.7043287078       15.2626236235       14.4779558414  W2        8540            0.0000000000
     25619      8540  TIP3      H1            -11.1771087078       16.0360636235       14.2778358414  W2        8540            0.0000000000
     25620      8540  TIP3      H2            -12.5844787078       15.4875436235       14.1763558414  W2        8540            0.0000000000
     25621      8541  TIP3      OH2           -15.9495587078       10.1250336235        9.0651958414  W2        8541            0.0000000000
     25622      8541  TIP3      H1            -15.3335687078       10.7517536235        9.4446758414  W2        8541            0.0000000000
     25623      8541  TIP3      H2            -16.8112987078       10.4410136235        9.3368458414  W2        8541            0.0000000000
     25624      8542  TIP3      OH2           -10.2770987078       12.9256136235       14.0543858414  W2        8542            0.0000000000
     25625      8542  TIP3      H1            -10.5180987078       13.8510536235       14.0959158414  W2        8542            0.0000000000
     25626      8542  TIP3      H2            -11.0177387078       12.4667436235       14.4507758414  W2        8542            0.0000000000
     25627      8543  TIP3      OH2            -9.7624387078       17.0749736235       20.3694958414  W2        8543            0.0000000000
     25628      8543  TIP3      H1             -9.3999687078       17.9295336235       20.1359358414  W2        8543            0.0000000000
     25629      8543  TIP3      H2             -9.2309187078       16.7831336235       21.1101258414  W2        8543            0.0000000000
     25630      8544  TIP3      OH2           -11.5940187078       17.9473736235       13.5996058414  W2        8544            0.0000000000
     25631      8544  TIP3      H1            -12.5439687078       18.0531136235       13.6509358414  W2        8544            0.0000000000
     25632      8544  TIP3      H2            -11.2422087078       18.7681136235       13.9443558414  W2        8544            0.0000000000
     25633      8545  TIP3      OH2            -6.2183587078       13.1740436235       20.0700558414  W2        8545            0.0000000000
     25634      8545  TIP3      H1             -6.6442287078       12.9462136235       20.8964558414  W2        8545            0.0000000000
     25635      8545  TIP3      H2             -5.6377787078       12.4352236235       19.8875858414  W2        8545            0.0000000000
     25636      8546  TIP3      OH2            -4.0154687078       14.1030936235        9.1439558414  W2        8546            0.0000000000
     25637      8546  TIP3      H1             -3.6621587078       13.7230736235        9.9483058414  W2        8546            0.0000000000
     25638      8546  TIP3      H2             -4.9641187078       14.0095736235        9.2308858414  W2        8546            0.0000000000
     25639      8547  TIP3      OH2            -3.5599387078       17.7259936235       22.5395358414  W2        8547            0.0000000000
     25640      8547  TIP3      H1             -4.1616187078       17.1702836235       22.0441658414  W2        8547            0.0000000000
     25641      8547  TIP3      H2             -3.2785687078       18.3929736235       21.9132758414  W2        8547            0.0000000000
     25642      8548  TIP3      OH2             0.4879712922       18.5823436235        9.3449758414  W2        8548            0.0000000000
     25643      8548  TIP3      H1              1.2317612922       19.1683936235        9.2051358414  W2        8548            0.0000000000
     25644      8548  TIP3      H2             -0.2062187078       19.1509236235        9.6782158414  W2        8548            0.0000000000
     25645      8549  TIP3      OH2           -15.4373487078        4.9587636235       21.9467958414  W2        8549            0.0000000000
     25646      8549  TIP3      H1            -16.3301187078        5.2973036235       21.8791958414  W2        8549            0.0000000000
     25647      8549  TIP3      H2            -15.5360687078        4.1033736235       22.3648758414  W2        8549            0.0000000000
     25648      8550  TIP3      OH2            -3.1495387078       12.7752936235       11.3707458414  W2        8550            0.0000000000
     25649      8550  TIP3      H1             -3.4267787078       12.0472236235       11.9268558414  W2        8550            0.0000000000
     25650      8550  TIP3      H2             -2.2222387078       12.8944936235       11.5760058414  W2        8550            0.0000000000
     25651      8551  TIP3      OH2           -15.7861487078       16.7632036235       20.3817358414  W2        8551            0.0000000000
     25652      8551  TIP3      H1            -15.5691187078       15.8314436235       20.3507058414  W2        8551            0.0000000000
     25653      8551  TIP3      H2            -15.5397987078       17.0377036235       21.2650158414  W2        8551            0.0000000000
     25654      8552  TIP3      OH2            -9.9246887078       15.2147036235        7.5909558414  W2        8552            0.0000000000
     25655      8552  TIP3      H1             -9.6857087078       14.4665136235        7.0438458414  W2        8552            0.0000000000
     25656      8552  TIP3      H2            -10.1935587078       14.8268736235        8.4237358414  W2        8552            0.0000000000
     25657      8553  TIP3      OH2           -10.9876287078       14.7850836235       10.0472158414  W2        8553            0.0000000000
     25658      8553  TIP3      H1            -10.8408287078       14.2650636235       10.8373058414  W2        8553            0.0000000000
     25659      8553  TIP3      H2            -10.9904587078       15.6918436235       10.3538058414  W2        8553            0.0000000000
     25660      8554  TIP3      OH2           -14.5345187078       12.0374136235       10.5577558414  W2        8554            0.0000000000
     25661      8554  TIP3      H1            -15.2205887078       12.3896636235       11.1247258414  W2        8554            0.0000000000
     25662      8554  TIP3      H2            -14.0117287078       12.8003736235       10.3111858414  W2        8554            0.0000000000
     25663      8555  TIP3      OH2            -6.7030087078        4.6997936235       20.8366558414  W2        8555            0.0000000000
     25664      8555  TIP3      H1             -6.0042187078        4.7736636235       21.4866258414  W2        8555            0.0000000000
     25665      8555  TIP3      H2             -7.0838687078        3.8352936235       20.9909458414  W2        8555            0.0000000000
     25666      8556  TIP3      OH2            -5.9185187078        4.3519636235       11.9338858414  W2        8556            0.0000000000
     25667      8556  TIP3      H1             -5.6986887078        4.8235036235       11.1304258414  W2        8556            0.0000000000
     25668      8556  TIP3      H2             -5.3601187078        4.7462236235       12.6039458414  W2        8556            0.0000000000
     25669      8557  TIP3      OH2            -8.2499087078       16.4824436235       10.7966358414  W2        8557            0.0000000000
     25670      8557  TIP3      H1             -9.0662987078       16.9794136235       10.8490658414  W2        8557            0.0000000000
     25671      8557  TIP3      H2             -7.7202787078       16.9577936235       10.1565158414  W2        8557            0.0000000000
     25672      8558  TIP3      OH2            -8.7185287078        6.0798436235       12.7687258414  W2        8558            0.0000000000
     25673      8558  TIP3      H1             -7.9062687078        6.5841636235       12.8148958414  W2        8558            0.0000000000
     25674      8558  TIP3      H2             -8.9632287078        5.9348136235       13.6826858414  W2        8558            0.0000000000
     25675      8559  TIP3      OH2            -8.1828887078        7.0661136235       21.9533858414  W2        8559            0.0000000000
     25676      8559  TIP3      H1             -8.0638587078        7.6396536235       22.7104258414  W2        8559            0.0000000000
     25677      8559  TIP3      H2             -7.5274287078        6.3780536235       22.0681658414  W2        8559            0.0000000000
     25678      8560  TIP3      OH2            -7.8348587078        3.1611436235       13.7068358414  W2        8560            0.0000000000
     25679      8560  TIP3      H1             -8.1815087078        3.7782036235       14.3512658414  W2        8560            0.0000000000
     25680      8560  TIP3      H2             -7.1761687078        3.6617136235       13.2253858414  W2        8560            0.0000000000
     25681      8561  TIP3      OH2           -10.9115987078       17.5261636235       10.7783258414  W2        8561            0.0000000000
     25682      8561  TIP3      H1            -10.7507287078       18.3259136235       10.2775858414  W2        8561            0.0000000000
     25683      8561  TIP3      H2            -11.1088187078       17.8327636235       11.6633858414  W2        8561            0.0000000000
     25684      8562  TIP3      OH2           -12.1771587078        4.2240836235       10.3940858414  W2        8562            0.0000000000
     25685      8562  TIP3      H1            -12.2606787078        5.1123936235       10.7407258414  W2        8562            0.0000000000
     25686      8562  TIP3      H2            -11.2871287078        3.9587536235       10.6257658414  W2        8562            0.0000000000
     25687      8563  TIP3      OH2            -1.9783087078        4.9731436235       22.7883558414  W2        8563            0.0000000000
     25688      8563  TIP3      H1             -2.8947287078        5.2353136235       22.7007258414  W2        8563            0.0000000000
     25689      8563  TIP3      H2             -1.6428087078        4.9700436235       21.8918858414  W2        8563            0.0000000000
     25690      8564  TIP3      OH2            -3.3762087078        8.7232436235       16.8840858414  W2        8564            0.0000000000
     25691      8564  TIP3      H1             -4.1737687078        8.3082636235       16.5555858414  W2        8564            0.0000000000
     25692      8564  TIP3      H2             -2.9310987078        8.0326136235       17.3751358414  W2        8564            0.0000000000
     25693      8565  TIP3      OH2           -13.9186287078       14.6513036235        9.4545358414  W2        8565            0.0000000000
     25694      8565  TIP3      H1            -13.3264787078       15.3507836235        9.7307758414  W2        8565            0.0000000000
     25695      8565  TIP3      H2            -13.4593287078       14.2182536235        8.7349958414  W2        8565            0.0000000000
     25696      8566  TIP3      OH2           -15.6027087078        7.3156036235        8.5704758414  W2        8566            0.0000000000
     25697      8566  TIP3      H1            -15.6474487078        8.2549136235        8.7491758414  W2        8566            0.0000000000
     25698      8566  TIP3      H2            -16.4903887078        7.0800936235        8.3006858414  W2        8566            0.0000000000
     25699      8567  TIP3      OH2            -2.2897487078       17.9794936235       18.5064358414  W2        8567            0.0000000000
     25700      8567  TIP3      H1             -2.4453187078       18.6579336235       17.8493658414  W2        8567            0.0000000000
     25701      8567  TIP3      H2             -1.3571087078       18.0514236235       18.7094958414  W2        8567            0.0000000000
     25702      8568  TIP3      OH2           -14.7945087078        2.0972636235       17.2435758414  W2        8568            0.0000000000
     25703      8568  TIP3      H1            -15.0235287078        2.1565136235       16.3160758414  W2        8568            0.0000000000
     25704      8568  TIP3      H2            -15.2371687078        1.3058136235       17.5499858414  W2        8568            0.0000000000
     25705      8569  TIP3      OH2           -15.8641787078       16.0379736235       13.4041558414  W2        8569            0.0000000000
     25706      8569  TIP3      H1            -16.6963187078       16.5102436235       13.4312958414  W2        8569            0.0000000000
     25707      8569  TIP3      H2            -15.3183487078       16.5477336235       12.8054658414  W2        8569            0.0000000000
     25708      8570  TIP3      OH2           -16.5758087078       18.6503436235       24.7339558414  W2        8570            0.0000000000
     25709      8570  TIP3      H1            -16.0355887078       18.4337436235       25.4938758414  W2        8570            0.0000000000
     25710      8570  TIP3      H2            -17.0570087078       17.8449436235       24.5442058414  W2        8570            0.0000000000
     25711      8571  TIP3      OH2           -11.9784687078       17.5697836235       26.3543758414  W2        8571            0.0000000000
     25712      8571  TIP3      H1            -11.2107487078       17.1108636235       26.6952958414  W2        8571            0.0000000000
     25713      8571  TIP3      H2            -11.9998487078       17.3437636235       25.4244958414  W2        8571            0.0000000000
     25714      8572  TIP3      OH2            -7.8865087078       17.0778436235        7.7295558414  W2        8572            0.0000000000
     25715      8572  TIP3      H1             -8.5304087078       16.4467036235        8.0509258414  W2        8572            0.0000000000
     25716      8572  TIP3      H2             -7.1246787078       16.5466436235        7.4979058414  W2        8572            0.0000000000
     25717      8573  TIP3      OH2            -5.4015987078       15.9498936235       25.0835258414  W2        8573            0.0000000000
     25718      8573  TIP3      H1             -5.7526487078       15.0931936235       25.3265658414  W2        8573            0.0000000000
     25719      8573  TIP3      H2             -4.6752787078       16.0925636235       25.6904258414  W2        8573            0.0000000000
     25720      8574  TIP3      OH2            -3.2822187078       16.8948336235        7.9633558414  W2        8574            0.0000000000
     25721      8574  TIP3      H1             -2.9991787078       16.1003536235        8.4160458414  W2        8574            0.0000000000
     25722      8574  TIP3      H2             -2.5424287078       17.1279336235        7.4024658414  W2        8574            0.0000000000
     25723      8575  TIP3      OH2           -16.6688587078       12.4607536235       25.6883858414  W2        8575            0.0000000000
     25724      8575  TIP3      H1            -16.5248087078       11.5588236235       25.4020558414  W2        8575            0.0000000000
     25725      8575  TIP3      H2            -17.4411187078       12.7469636235       25.2006158414  W2        8575            0.0000000000
     25726      8576  TIP3      OH2           -12.3274887078       12.8043236235        7.8208458414  W2        8576            0.0000000000
     25727      8576  TIP3      H1            -12.2630787078       12.0102836235        8.3514858414  W2        8576            0.0000000000
     25728      8576  TIP3      H2            -11.6745687078       12.6856036235        7.1310458414  W2        8576            0.0000000000
     25729      8577  TIP3      OH2           -10.0132487078       12.4305636235       25.1210258414  W2        8577            0.0000000000
     25730      8577  TIP3      H1            -10.3418687078       12.7013736235       24.2637658414  W2        8577            0.0000000000
     25731      8577  TIP3      H2             -9.8614287078       11.4895436235       25.0335258414  W2        8577            0.0000000000
     25732      8578  TIP3      OH2            -6.9751487078       13.8514936235        7.5566458414  W2        8578            0.0000000000
     25733      8578  TIP3      H1             -7.2437387078       14.0317036235        8.4575358414  W2        8578            0.0000000000
     25734      8578  TIP3      H2             -7.1815887078       12.9261136235        7.4252258414  W2        8578            0.0000000000
     25735      8579  TIP3      OH2            -4.2787287078       12.3462936235       22.5042558414  W2        8579            0.0000000000
     25736      8579  TIP3      H1             -3.5332487078       12.9346636235       22.3846558414  W2        8579            0.0000000000
     25737      8579  TIP3      H2             -5.0360487078       12.9282636235       22.5675658414  W2        8579            0.0000000000
     25738      8580  TIP3      OH2           -15.8362087078        9.6610836235       25.1083158414  W2        8580            0.0000000000
     25739      8580  TIP3      H1            -15.4280887078        8.8037436235       24.9873758414  W2        8580            0.0000000000
     25740      8580  TIP3      H2            -16.0964487078        9.6752136235       26.0293458414  W2        8580            0.0000000000
     25741      8581  TIP3      OH2           -11.1781087078       10.7769436235       10.1266458414  W2        8581            0.0000000000
     25742      8581  TIP3      H1            -11.6379087078       10.2927736235       10.8124958414  W2        8581            0.0000000000
     25743      8581  TIP3      H2            -10.9232387078       10.1084836235        9.4906958414  W2        8581            0.0000000000
     25744      8582  TIP3      OH2           -11.8891787078        8.6696536235       22.4826058414  W2        8582            0.0000000000
     25745      8582  TIP3      H1            -12.5075687078        9.3443136235       22.7630758414  W2        8582            0.0000000000
     25746      8582  TIP3      H2            -11.5450587078        8.9910436235       21.6492258414  W2        8582            0.0000000000
     25747      8583  TIP3      OH2           -10.1070687078        9.0201236235        8.3889658414  W2        8583            0.0000000000
     25748      8583  TIP3      H1            -10.2875687078        8.8652436235        7.4617958414  W2        8583            0.0000000000
     25749      8583  TIP3      H2             -9.1570187078        9.1279936235        8.4337558414  W2        8583            0.0000000000
     25750      8584  TIP3      OH2            -6.8693587078       11.1411836235       25.7600858414  W2        8584            0.0000000000
     25751      8584  TIP3      H1             -5.9162387078       11.2250936235       25.7326858414  W2        8584            0.0000000000
     25752      8584  TIP3      H2             -7.0298987078       10.4293636235       26.3795758414  W2        8584            0.0000000000
     25753      8585  TIP3      OH2            -0.7172387078       11.3745436235        7.8347758414  W2        8585            0.0000000000
     25754      8585  TIP3      H1             -0.9907587078       10.9500936235        7.0216058414  W2        8585            0.0000000000
     25755      8585  TIP3      H2             -0.6778287078       12.3059936235        7.6178158414  W2        8585            0.0000000000
     25756      8586  TIP3      OH2           -11.5498087078        6.0247336235       23.5649158414  W2        8586            0.0000000000
     25757      8586  TIP3      H1            -11.3997187078        5.2958636235       22.9628858414  W2        8586            0.0000000000
     25758      8586  TIP3      H2            -11.5475687078        6.8019036235       23.0061358414  W2        8586            0.0000000000
     25759      8587  TIP3      OH2           -11.1372387078        4.3943136235       21.0576558414  W2        8587            0.0000000000
     25760      8587  TIP3      H1            -10.6014887078        4.8459836235       20.4055858414  W2        8587            0.0000000000
     25761      8587  TIP3      H2            -11.9892787078        4.2862936235       20.6350658414  W2        8587            0.0000000000
     25762      8588  TIP3      OH2            -9.5553987078        9.8339336235       21.2971758414  W2        8588            0.0000000000
     25763      8588  TIP3      H1             -8.8049187078        9.6776836235       20.7239558414  W2        8588            0.0000000000
     25764      8588  TIP3      H2             -9.8945687078       10.6855936235       21.0217258414  W2        8588            0.0000000000
     25765      8589  TIP3      OH2            -5.1397787078        7.6491136235       26.3257058414  W2        8589            0.0000000000
     25766      8589  TIP3      H1             -4.9476487078        6.7180536235       26.2141558414  W2        8589            0.0000000000
     25767      8589  TIP3      H2             -4.2821487078        8.0740636235       26.3152458414  W2        8589            0.0000000000
     25768      8590  TIP3      OH2            -3.8230587078       10.4376336235       24.4029758414  W2        8590            0.0000000000
     25769      8590  TIP3      H1             -4.1045587078       11.1470936235       23.8253558414  W2        8590            0.0000000000
     25770      8590  TIP3      H2             -2.8806287078       10.3649336235       24.2520958414  W2        8590            0.0000000000
     25771      8591  TIP3      OH2           -13.0711787078        7.2230836235       25.4764758414  W2        8591            0.0000000000
     25772      8591  TIP3      H1            -13.8382787078        6.6905636235       25.2662358414  W2        8591            0.0000000000
     25773      8591  TIP3      H2            -12.3922787078        6.9131236235       24.8771058414  W2        8591            0.0000000000
     25774      8592  TIP3      OH2           -10.3316887078        1.8508836235       21.4890158414  W2        8592            0.0000000000
     25775      8592  TIP3      H1            -10.4297287078        2.7972036235       21.3836358414  W2        8592            0.0000000000
     25776      8592  TIP3      H2            -11.0740687078        1.4782636235       21.0133658414  W2        8592            0.0000000000
     25777      8593  TIP3      OH2            -9.0676387078        6.1724236235       25.0528558414  W2        8593            0.0000000000
     25778      8593  TIP3      H1             -9.3030987078        5.9530936235       25.9543458414  W2        8593            0.0000000000
     25779      8593  TIP3      H2             -9.8509487078        5.9655436235       24.5431058414  W2        8593            0.0000000000
     25780      8594  TIP3      OH2            -6.3519787078        5.2997736235       24.1282058414  W2        8594            0.0000000000
     25781      8594  TIP3      H1             -7.2994387078        5.3317436235       24.2605358414  W2        8594            0.0000000000
     25782      8594  TIP3      H2             -6.0393087078        4.6744836235       24.7820258414  W2        8594            0.0000000000
     25783      8595  TIP3      OH2            -4.7178287078        3.9338836235       26.1333958414  W2        8595            0.0000000000
     25784      8595  TIP3      H1             -4.8146487078        2.9816136235       26.1275858414  W2        8595            0.0000000000
     25785      8595  TIP3      H2             -5.0395187078        4.2025636235       26.9939458414  W2        8595            0.0000000000
     25786      8596  TIP3      OH2           -14.8908987078        5.1434636235       25.1809458414  W2        8596            0.0000000000
     25787      8596  TIP3      H1            -14.6791587078        4.4370736235       24.5706958414  W2        8596            0.0000000000
     25788      8596  TIP3      H2            -15.0021487078        4.7060636235       26.0250658414  W2        8596            0.0000000000
     25789      8597  TIP3      OH2           -10.1098787078        1.1446236235       24.1602958414  W2        8597            0.0000000000
     25790      8597  TIP3      H1             -9.3980387078        0.5048436235       24.1462058414  W2        8597            0.0000000000
     25791      8597  TIP3      H2            -10.2108387078        1.4114536235       23.2466058414  W2        8597            0.0000000000
     25792      8598  TIP3      OH2            -9.7561287078        2.8274636235       26.2139258414  W2        8598            0.0000000000
     25793      8598  TIP3      H1             -9.8879087078        2.3518436235       25.3937758414  W2        8598            0.0000000000
     25794      8598  TIP3      H2            -10.3553887078        3.5718236235       26.1586358414  W2        8598            0.0000000000
     25795      8599  TIP3      OH2           -10.2098987078       19.7104936235        9.3903258414  W2        8599            0.0000000000
     25796      8599  TIP3      H1             -9.2768287078       19.8683636235        9.5341658414  W2        8599            0.0000000000
     25797      8599  TIP3      H2            -10.4740187078       20.3857936235        8.7654758414  W2        8599            0.0000000000
     25798      8600  TIP3      OH2           -16.6414087078       14.3468736235        8.8731358414  W2        8600            0.0000000000
     25799      8600  TIP3      H1            -15.7274887078       14.4257636235        9.1465258414  W2        8600            0.0000000000
     25800      8600  TIP3      H2            -16.6340987078       13.6598336235        8.2066958414  W2        8600            0.0000000000
     25801      8601  TIP3      OH2           -17.9923487078       19.7397236235       13.9505258414  W2        8601            0.0000000000
     25802      8601  TIP3      H1            -18.6396387078       19.2778936235       13.4176458414  W2        8601            0.0000000000
     25803      8601  TIP3      H2            -17.6378887078       19.0680536235       14.5331458414  W2        8601            0.0000000000
     25804      8602  TIP3      OH2           -17.1224287078       17.8204236235       15.7551458414  W2        8602            0.0000000000
     25805      8602  TIP3      H1            -17.4567487078       16.9401536235       15.9271658414  W2        8602            0.0000000000
     25806      8602  TIP3      H2            -16.9001887078       18.1659236235       16.6197058414  W2        8602            0.0000000000
     25807      8603  TIP3      OH2             0.4260512922       18.6300636235       18.7356258414  W2        8603            0.0000000000
     25808      8603  TIP3      H1              0.4047212922       18.8149036235       19.6745658414  W2        8603            0.0000000000
     25809      8603  TIP3      H2              1.1166712922       19.1984636235       18.3947658414  W2        8603            0.0000000000
     25810      8604  TIP3      OH2            -0.0106587078       18.1971736235       21.6575358414  W2        8604            0.0000000000
     25811      8604  TIP3      H1             -0.4977887078       17.4615836235       21.2862758414  W2        8604            0.0000000000
     25812      8604  TIP3      H2              0.5386112922       17.8035636235       22.3354758414  W2        8604            0.0000000000
     25813      8605  TIP3      OH2            -1.5599287078       13.9869836235       26.2955658414  W2        8605            0.0000000000
     25814      8605  TIP3      H1             -2.4258187078       13.8819536235       26.6897958414  W2        8605            0.0000000000
     25815      8605  TIP3      H2             -1.1833387078       14.7453136235       26.7420358414  W2        8605            0.0000000000
     25816      8606  TIP3      OH2            -0.2589587078       12.2433536235       11.8098158414  W2        8606            0.0000000000
     25817      8606  TIP3      H1              0.5911812922       12.6644436235       11.9369758414  W2        8606            0.0000000000
     25818      8606  TIP3      H2             -0.2534487078       11.5033636235       12.4169558414  W2        8606            0.0000000000
     25819      8607  TIP3      OH2             0.1356012922       10.2970936235       13.6333858414  W2        8607            0.0000000000
     25820      8607  TIP3      H1             -0.5909387078        9.8173536235       14.0311458414  W2        8607            0.0000000000
     25821      8607  TIP3      H2              0.7169312922       10.5025636235       14.3655458414  W2        8607            0.0000000000
     25822      8608  TIP3      OH2            -0.1052787078       13.0818436235       18.5811458414  W2        8608            0.0000000000
     25823      8608  TIP3      H1              0.7281412922       12.7038436235       18.3005058414  W2        8608            0.0000000000
     25824      8608  TIP3      H2              0.0067512922       14.0249636235       18.4620558414  W2        8608            0.0000000000
     25825      8609  TIP3      OH2            -1.6190487078       15.9595936235       20.8879858414  W2        8609            0.0000000000
     25826      8609  TIP3      H1             -2.2665187078       16.2847436235       21.5135058414  W2        8609            0.0000000000
     25827      8609  TIP3      H2             -2.1366487078       15.5193636235       20.2138158414  W2        8609            0.0000000000
     25828      8610  TIP3      OH2             0.4039112922       10.1979436235       10.0245158414  W2        8610            0.0000000000
     25829      8610  TIP3      H1             -0.1179787078       10.5543536235        9.3056058414  W2        8610            0.0000000000
     25830      8610  TIP3      H2              0.3708312922       10.8727236235       10.7026058414  W2        8610            0.0000000000
     25831      8611  TIP3      OH2            -1.2471887078        7.4375036235        8.5752258414  W2        8611            0.0000000000
     25832      8611  TIP3      H1             -1.1507487078        8.1042036235        7.8951958414  W2        8611            0.0000000000
     25833      8611  TIP3      H2             -1.3872287078        6.6221336235        8.0937758414  W2        8611            0.0000000000
     25834      8612  TIP3      OH2            -2.0777187078        8.8177436235       14.1962558414  W2        8612            0.0000000000
     25835      8612  TIP3      H1             -2.2278387078        7.8726036235       14.1760358414  W2        8612            0.0000000000
     25836      8612  TIP3      H2             -2.4312687078        9.0988836235       15.0401658414  W2        8612            0.0000000000
     25837      8613  TIP3      OH2           -17.0424787078       10.8959636235       18.2066358414  W2        8613            0.0000000000
     25838      8613  TIP3      H1            -16.8581887078       10.8141336235       17.2709258414  W2        8613            0.0000000000
     25839      8613  TIP3      H2            -16.1931887078       10.7716636235       18.6302758414  W2        8613            0.0000000000
     25840      8614  TIP3      OH2            -1.2214287078       10.7880736235       23.8350858414  W2        8614            0.0000000000
     25841      8614  TIP3      H1             -0.6386987078       10.0533036235       24.0268058414  W2        8614            0.0000000000
     25842      8614  TIP3      H2             -0.6574987078       11.5601036235       23.8816658414  W2        8614            0.0000000000
     25843      8615  TIP3      OH2             0.2752812922        8.6906536235       24.5196258414  W2        8615            0.0000000000
     25844      8615  TIP3      H1             -0.5880487078        8.3118636235       24.3540958414  W2        8615            0.0000000000
     25845      8615  TIP3      H2              0.8796512922        7.9521336235       24.4452058414  W2        8615            0.0000000000
     25846      8616  TIP3      OH2            -1.9998087078        4.8454836235        7.6927758414  W2        8616            0.0000000000
     25847      8616  TIP3      H1             -1.3892287078        4.4741636235        8.3295958414  W2        8616            0.0000000000
     25848      8616  TIP3      H2             -2.8366587078        4.4241736235        7.8887758414  W2        8616            0.0000000000
     25849      8617  TIP3      OH2            -2.3672387078        6.4003236235       12.6587658414  W2        8617            0.0000000000
     25850      8617  TIP3      H1             -2.0875287078        5.4933636235       12.7829358414  W2        8617            0.0000000000
     25851      8617  TIP3      H2             -1.6080687078        6.8344736235       12.2696858414  W2        8617            0.0000000000
     25852      8618  TIP3      OH2            -1.7554087078        6.9820636235       18.0946558414  W2        8618            0.0000000000
     25853      8618  TIP3      H1             -0.8226087078        7.1940536235       18.0602558414  W2        8618            0.0000000000
     25854      8618  TIP3      H2             -1.9906587078        7.0832736235       19.0169558414  W2        8618            0.0000000000
     25855      8619  TIP3      OH2            -1.7262187078        7.7185936235       20.8705958414  W2        8619            0.0000000000
     25856      8619  TIP3      H1             -2.5690887078        7.9866336235       21.2365758414  W2        8619            0.0000000000
     25857      8619  TIP3      H2             -1.2837887078        8.5407836235       20.6597058414  W2        8619            0.0000000000
     25858      8620  TIP3      OH2           -17.4449987078        6.1664636235       24.3475158414  W2        8620            0.0000000000
     25859      8620  TIP3      H1            -16.5255087078        6.0442936235       24.5838258414  W2        8620            0.0000000000
     25860      8620  TIP3      H2            -17.8945487078        5.4164336235       24.7368658414  W2        8620            0.0000000000
     25861      8621  TIP3      OH2             0.5569412922        1.6986136235       26.2240958414  W2        8621            0.0000000000
     25862      8621  TIP3      H1              0.9066412922        1.0449636235       25.6185658414  W2        8621            0.0000000000
     25863      8621  TIP3      H2              0.7038912922        2.5360236235       25.7843558414  W2        8621            0.0000000000
     25864      8622  TIP3      OH2            -1.7537587078        3.6632536235       12.7069658414  W2        8622            0.0000000000
     25865      8622  TIP3      H1             -1.5712587078        3.2144036235       13.5324658414  W2        8622            0.0000000000
     25866      8622  TIP3      H2             -2.3534687078        3.0786936235       12.2434258414  W2        8622            0.0000000000
     25867      8623  TIP3      OH2           -16.2237487078        4.4786236235       17.2388058414  W2        8623            0.0000000000
     25868      8623  TIP3      H1            -15.7785887078        3.6868736235       17.5407758414  W2        8623            0.0000000000
     25869      8623  TIP3      H2            -15.7574487078        5.1951436235       17.6693658414  W2        8623            0.0000000000
     25870      8624  TIP3      OH2           -17.9197187078        7.4779236235       18.3078258414  W2        8624            0.0000000000
     25871      8624  TIP3      H1            -17.4277387078        7.2569736235       17.5170258414  W2        8624            0.0000000000
     25872      8624  TIP3      H2            -17.5576287078        8.3182636235       18.5887758414  W2        8624            0.0000000000
     25873      8625  TIP3      OH2             0.0766612922        3.8080736235       24.5732258414  W2        8625            0.0000000000
     25874      8625  TIP3      H1             -0.8407687078        4.0787836235       24.5375758414  W2        8625            0.0000000000
     25875      8625  TIP3      H2              0.1996012922        3.2729136235       23.7891958414  W2        8625            0.0000000000
     25876      8626  TIP3      OH2             0.1128612922        3.7310636235        9.2349958414  W2        8626            0.0000000000
     25877      8626  TIP3      H1              0.5251212922        3.0096336235        8.7597958414  W2        8626            0.0000000000
     25878      8626  TIP3      H2              0.7945112922        4.4005236235        9.2934258414  W2        8626            0.0000000000
     25879      8627  TIP3      OH2           -17.6060687078        3.7358336235       12.3620658414  W2        8627            0.0000000000
     25880      8627  TIP3      H1            -18.5312287078        3.9444936235       12.2326158414  W2        8627            0.0000000000
     25881      8627  TIP3      H2            -17.1520787078        4.2199136235       11.6722958414  W2        8627            0.0000000000
     25882      8628  TIP3      OH2            -2.8353487078       18.7200036235       14.3078058414  W2        8628            0.0000000000
     25883      8628  TIP3      H1             -2.1830587078       18.3722136235       13.6997158414  W2        8628            0.0000000000
     25884      8628  TIP3      H2             -2.3249687078       19.2083236235       14.9537758414  W2        8628            0.0000000000
     25885      8629  TIP3      OH2           -17.6425287078        2.4737336235       20.7063158414  W2        8629            0.0000000000
     25886      8629  TIP3      H1            -18.3074787078        2.2277636235       21.3494058414  W2        8629            0.0000000000
     25887      8629  TIP3      H2            -18.0853987078        3.0957736235       20.1291158414  W2        8629            0.0000000000
     25888      8630  TIP3      OH2           -15.4505987078       15.6491436235       24.8508958414  W2        8630            0.0000000000
     25889      8630  TIP3      H1            -16.2713487078       15.8237936235       24.3903658414  W2        8630            0.0000000000
     25890      8630  TIP3      H2            -15.7028187078       15.5756136235       25.7713358414  W2        8630            0.0000000000
     25891      8631  TIP3      OH2           -12.4963087078       16.6232636235       21.1092958414  W2        8631            0.0000000000
     25892      8631  TIP3      H1            -12.9211987078       17.4331136235       20.8267558414  W2        8631            0.0000000000
     25893      8631  TIP3      H2            -11.5920287078       16.7086736235       20.8072758414  W2        8631            0.0000000000
     25894      8632  TIP3      OH2            -8.1851687078       18.0222636235       24.0686658414  W2        8632            0.0000000000
     25895      8632  TIP3      H1             -8.0004187078       17.6888736235       24.9466958414  W2        8632            0.0000000000
     25896      8632  TIP3      H2             -7.3387187078       18.3321236235       23.7465858414  W2        8632            0.0000000000
     25897      8633  TIP3      OH2            -5.8401287078       19.3081536235       23.3128058414  W2        8633            0.0000000000
     25898      8633  TIP3      H1             -5.1632387078       18.6753836235       23.0727258414  W2        8633            0.0000000000
     25899      8633  TIP3      H2             -5.5182487078       19.7092036235       24.1201358414  W2        8633            0.0000000000
     25900      8634  TIP3      OH2            -0.9227487078        1.8977036235       22.3923058414  W2        8634            0.0000000000
     25901      8634  TIP3      H1             -1.7353987078        2.2227336235       22.0047758414  W2        8634            0.0000000000
     25902      8634  TIP3      H2             -0.6898987078        1.1375536235       21.8592158414  W2        8634            0.0000000000
     25903      8635  TIP3      OH2           -15.0946387078       19.8796536235       21.1568258414  W2        8635            0.0000000000
     25904      8635  TIP3      H1            -15.8149987078       20.3197536235       20.7055958414  W2        8635            0.0000000000
     25905      8635  TIP3      H2            -15.4602387078       19.6291236235       22.0052258414  W2        8635            0.0000000000
     25906      8636  TIP3      OH2           -12.6273787078       19.4800436235       20.1865458414  W2        8636            0.0000000000
     25907      8636  TIP3      H1            -13.4921587078       19.5518936235       20.5905558414  W2        8636            0.0000000000
     25908      8636  TIP3      H2            -12.6824787078       20.0267736235       19.4027958414  W2        8636            0.0000000000
     25909      8637  TIP3      OH2            -7.9168187078       19.3679336235       19.3621458414  W2        8637            0.0000000000
     25910      8637  TIP3      H1             -8.3734187078       19.8969036235       18.7079858414  W2        8637            0.0000000000
     25911      8637  TIP3      H2             -7.7540187078       19.9710736235       20.0873758414  W2        8637            0.0000000000
     25912      8638  TIP3      OH2            -5.5891887078       18.2458936235       20.3071758414  W2        8638            0.0000000000
     25913      8638  TIP3      H1             -6.4938187078       18.4109136235       20.0413858414  W2        8638            0.0000000000
     25914      8638  TIP3      H2             -5.1603287078       19.0991136235       20.2415158414  W2        8638            0.0000000000
     25915      8639  TIP3      OH2            -2.9849987078       19.8158036235       20.6019558414  W2        8639            0.0000000000
     25916      8639  TIP3      H1             -3.1667987078       20.7316936235       20.3914458414  W2        8639            0.0000000000
     25917      8639  TIP3      H2             -2.8082187078       19.4055136235       19.7554158414  W2        8639            0.0000000000
     25918      8640  TIP3      OH2           -15.6798287078       18.5029036235       18.0670058414  W2        8640            0.0000000000
     25919      8640  TIP3      H1            -15.6982287078       18.0774136235       18.9242358414  W2        8640            0.0000000000
     25920      8640  TIP3      H2            -14.8750387078       18.1844036235       17.6582258414  W2        8640            0.0000000000
     25921      8641  TIP3      OH2           -13.5385187078       17.2127736235       16.7219958414  W2        8641            0.0000000000
     25922      8641  TIP3      H1            -13.7574487078       16.2965136235       16.8915958414  W2        8641            0.0000000000
     25923      8641  TIP3      H2            -12.7142987078       17.3528136235       17.1881358414  W2        8641            0.0000000000
     25924      8642  TIP3      OH2           -11.0012687078       17.6827036235       17.5707958414  W2        8642            0.0000000000
     25925      8642  TIP3      H1            -10.7886987078       16.7946036235       17.2838858414  W2        8642            0.0000000000
     25926      8642  TIP3      H2            -10.9367587078       17.6484736235       18.5251958414  W2        8642            0.0000000000
     25927      8643  TIP3      OH2            -7.4928987078        3.3467636235       16.7151258414  W2        8643            0.0000000000
     25928      8643  TIP3      H1             -8.1672187078        2.7173236235       16.9707058414  W2        8643            0.0000000000
     25929      8643  TIP3      H2             -6.9289787078        2.8626536235       16.1119158414  W2        8643            0.0000000000
     25930      8644  TIP3      OH2            -2.3501787078        1.4541636235       16.8278358414  W2        8644            0.0000000000
     25931      8644  TIP3      H1             -1.7464187078        2.0017036235       16.3259358414  W2        8644            0.0000000000
     25932      8644  TIP3      H2             -3.2199787078        1.7732036235       16.5872458414  W2        8644            0.0000000000
     25933      8645  TIP3      OH2            -0.6231387078        2.5930336235       15.1609258414  W2        8645            0.0000000000
     25934      8645  TIP3      H1             -0.0113887078        2.0786036235       14.6342858414  W2        8645            0.0000000000
     25935      8645  TIP3      H2             -0.2407987078        3.4702436235       15.1843658414  W2        8645            0.0000000000
     25936      8646  TIP3      OH2           -15.1661487078        1.9807936235       14.5371158414  W2        8646            0.0000000000
     25937      8646  TIP3      H1            -15.9431687078        1.7462836235       14.0297058414  W2        8646            0.0000000000
     25938      8646  TIP3      H2            -14.6357887078        1.1840036235       14.5459158414  W2        8646            0.0000000000
     25939      8647  TIP3      OH2           -16.3298087078        1.7786036235       10.3407258414  W2        8647            0.0000000000
     25940      8647  TIP3      H1            -15.8907387078        2.3896536235        9.7490758414  W2        8647            0.0000000000
     25941      8647  TIP3      H2            -16.9635687078        2.3170136235       10.8147258414  W2        8647            0.0000000000
     25942      8648  TIP3      OH2           -10.5868887078        1.9075036235       14.3504258414  W2        8648            0.0000000000
     25943      8648  TIP3      H1             -9.7125487078        2.2959336235       14.3208558414  W2        8648            0.0000000000
     25944      8648  TIP3      H2            -10.7228087078        1.6922836235       15.2731458414  W2        8648            0.0000000000
     25945      8649  TIP3      OH2            -5.0300487078        1.9374836235       15.9995958414  W2        8649            0.0000000000
     25946      8649  TIP3      H1             -4.9538887078        2.0326436235       15.0501958414  W2        8649            0.0000000000
     25947      8649  TIP3      H2             -5.3051287078        1.0297736235       16.1285058414  W2        8649            0.0000000000
     25948      8650  TIP3      OH2            -3.6767887078        1.9632636235       11.6920958414  W2        8650            0.0000000000
     25949      8650  TIP3      H1             -4.3796787078        2.5781836235       11.4822358414  W2        8650            0.0000000000
     25950      8650  TIP3      H2             -4.1216487078        1.1259336235       11.8231858414  W2        8650            0.0000000000
     25951      8651  TIP3      OH2           -16.4288587078       17.7268236235       11.2382358414  W2        8651            0.0000000000
     25952      8651  TIP3      H1            -17.1138687078       17.6887136235       10.5707458414  W2        8651            0.0000000000
     25953      8651  TIP3      H2            -16.4251387078       18.6395836235       11.5264458414  W2        8651            0.0000000000
     25954      8652  TIP3      OH2           -14.4688987078        3.6947536235        8.7831358414  W2        8652            0.0000000000
     25955      8652  TIP3      H1            -13.9775587078        3.0649936235        8.2556858414  W2        8652            0.0000000000
     25956      8652  TIP3      H2            -13.8452687078        3.9906936235        9.4462558414  W2        8652            0.0000000000
     25957      8653  TIP3      OH2            -9.4428887078        3.9879036235       11.2401858414  W2        8653            0.0000000000
     25958      8653  TIP3      H1             -9.2647587078        3.3412236235       11.9230458414  W2        8653            0.0000000000
     25959      8653  TIP3      H2             -9.4962687078        4.8216736235       11.7072958414  W2        8653            0.0000000000
     25960      8654  TIP3      OH2            -7.5645087078       18.9363136235        9.6358558414  W2        8654            0.0000000000
     25961      8654  TIP3      H1             -6.6984887078       19.3030536235        9.4576758414  W2        8654            0.0000000000
     25962      8654  TIP3      H2             -7.8112287078       18.4971136235        8.8219358414  W2        8654            0.0000000000
     25963      8655  TIP3      OH2            -0.8555487078       18.4993436235       12.3149658414  W2        8655            0.0000000000
     25964      8655  TIP3      H1             -1.0498387078       17.7515536235       11.7499258414  W2        8655            0.0000000000
     25965      8655  TIP3      H2             -0.8945387078       19.2573536235       11.7317558414  W2        8655            0.0000000000
     25966      8656  TIP3      OH2           -15.2083487078        2.4949836235       24.0547358414  W2        8656            0.0000000000
     25967      8656  TIP3      H1            -15.5745287078        1.7292436235       24.4972058414  W2        8656            0.0000000000
     25968      8656  TIP3      H2            -14.2954987078        2.5240036235       24.3412458414  W2        8656            0.0000000000
     25969      8657  TIP3      OH2           -13.2352687078        1.8454236235       25.5904458414  W2        8657            0.0000000000
     25970      8657  TIP3      H1            -12.3369087078        1.5714436235       25.4057858414  W2        8657            0.0000000000
     25971      8657  TIP3      H2            -13.6219587078        1.1030236235       26.0547058414  W2        8657            0.0000000000
     25972      8658  TIP3      OH2           -14.6107387078       18.6469036235        8.2634458414  W2        8658            0.0000000000
     25973      8658  TIP3      H1            -14.8782787078       18.9331936235        9.1367558414  W2        8658            0.0000000000
     25974      8658  TIP3      H2            -13.8394787078       18.1008236235        8.4156958414  W2        8658            0.0000000000
     25975      8659  TIP3      OH2            -4.8140387078        1.1779536235       25.7727258414  W2        8659            0.0000000000
     25976      8659  TIP3      H1             -4.7373187078        0.7520236235       26.6264958414  W2        8659            0.0000000000
     25977      8659  TIP3      H2             -3.9203787078        1.1914236235       25.4300758414  W2        8659            0.0000000000
     25978      8660  TIP3      OH2            -1.6379287078       17.2505836235       24.4651458414  W2        8660            0.0000000000
     25979      8660  TIP3      H1             -2.4197387078       17.0643836235       23.9452058414  W2        8660            0.0000000000
     25980      8660  TIP3      H2             -1.7099387078       18.1800136235       24.6823958414  W2        8660            0.0000000000
     25981      8661  TIP3      OH2            12.7681112922       11.1370236235       14.4958658414  W2        8661            0.0000000000
     25982      8661  TIP3      H1             12.8572212922       12.0808436235       14.3635758414  W2        8661            0.0000000000
     25983      8661  TIP3      H2             12.1298712922       10.8616636235       13.8378058414  W2        8661            0.0000000000
     25984      8662  TIP3      OH2            11.7012412922       10.3920936235       17.9146858414  W2        8662            0.0000000000
     25985      8662  TIP3      H1             11.6629912922        9.7457236235       18.6196458414  W2        8662            0.0000000000
     25986      8662  TIP3      H2             11.3788912922        9.9255336235       17.1435558414  W2        8662            0.0000000000
     25987      8663  TIP3      OH2             4.0697412922       10.0063036235       19.5076758414  W2        8663            0.0000000000
     25988      8663  TIP3      H1              4.1109512922        9.3806336235       20.2309158414  W2        8663            0.0000000000
     25989      8663  TIP3      H2              4.7725112922       10.6301636235       19.6897158414  W2        8663            0.0000000000
     25990      8664  TIP3      OH2            15.4072612922       13.3311336235       16.2161958414  W2        8664            0.0000000000
     25991      8664  TIP3      H1             14.9665312922       12.6107336235       16.6667558414  W2        8664            0.0000000000
     25992      8664  TIP3      H2             15.3942312922       14.0518536235       16.8459658414  W2        8664            0.0000000000
     25993      8665  TIP3      OH2             4.9930512922       14.4561936235       18.0425858414  W2        8665            0.0000000000
     25994      8665  TIP3      H1              4.6235712922       13.6542436235       17.6730158414  W2        8665            0.0000000000
     25995      8665  TIP3      H2              5.9341612922       14.2876836235       18.0889258414  W2        8665            0.0000000000
     25996      8666  TIP3      OH2             1.6031012922        8.1164536235       13.4354658414  W2        8666            0.0000000000
     25997      8666  TIP3      H1              1.1554412922        8.9623236235       13.4171158414  W2        8666            0.0000000000
     25998      8666  TIP3      H2              1.0422212922        7.5368736235       12.9199758414  W2        8666            0.0000000000
     25999      8667  TIP3      OH2             2.3137112922       10.2784136235       15.5612658414  W2        8667            0.0000000000
     26000      8667  TIP3      H1              2.5270612922        9.5085736235       16.0885658414  W2        8667            0.0000000000
     26001      8667  TIP3      H2              3.0514712922       10.3680836235       14.9580258414  W2        8667            0.0000000000
     26002      8668  TIP3      OH2            12.5188112922       18.4353036235       16.4282358414  W2        8668            0.0000000000
     26003      8668  TIP3      H1             13.1384512922       17.7587736235       16.1551558414  W2        8668            0.0000000000
     26004      8668  TIP3      H2             12.3105512922       18.2173836235       17.3367258414  W2        8668            0.0000000000
     26005      8669  TIP3      OH2            10.0906812922       12.8242336235       18.3207858414  W2        8669            0.0000000000
     26006      8669  TIP3      H1             10.3944712922       12.1383736235       17.7261958414  W2        8669            0.0000000000
     26007      8669  TIP3      H2             10.8120812922       12.9431036235       18.9385858414  W2        8669            0.0000000000
     26008      8670  TIP3      OH2            18.7536612922        4.4257636235       19.1814058414  W2        8670            0.0000000000
     26009      8670  TIP3      H1             18.8028812922        5.0358836235       19.9173158414  W2        8670            0.0000000000
     26010      8670  TIP3      H2             19.1791712922        4.8868536235       18.4585158414  W2        8670            0.0000000000
     26011      8671  TIP3      OH2            13.2313812922        7.2184736235       18.6482658414  W2        8671            0.0000000000
     26012      8671  TIP3      H1             13.3739712922        6.2721736235       18.6684258414  W2        8671            0.0000000000
     26013      8671  TIP3      H2             13.1252812922        7.4254536235       17.7197558414  W2        8671            0.0000000000
     26014      8672  TIP3      OH2             6.3862112922        5.3201136235       15.9207458414  W2        8672            0.0000000000
     26015      8672  TIP3      H1              6.4293212922        6.1799636235       15.5023758414  W2        8672            0.0000000000
     26016      8672  TIP3      H2              5.9286212922        4.7675836235       15.2870658414  W2        8672            0.0000000000
     26017      8673  TIP3      OH2            14.1084812922        5.4506736235       14.3215758414  W2        8673            0.0000000000
     26018      8673  TIP3      H1             14.7549112922        5.1219936235       14.9463358414  W2        8673            0.0000000000
     26019      8673  TIP3      H2             14.6184212922        5.9685736235       13.6987158414  W2        8673            0.0000000000
     26020      8674  TIP3      OH2             3.0063612922        7.7166936235       16.6828858414  W2        8674            0.0000000000
     26021      8674  TIP3      H1              3.6600212922        7.1668636235       17.1148958414  W2        8674            0.0000000000
     26022      8674  TIP3      H2              3.0302912922        7.4425936235       15.7660858414  W2        8674            0.0000000000
     26023      8675  TIP3      OH2             8.1628112922        9.2668236235       15.8980358414  W2        8675            0.0000000000
     26024      8675  TIP3      H1              8.7789112922        8.7403636235       16.4074358414  W2        8675            0.0000000000
     26025      8675  TIP3      H2              7.5766912922        8.6266936235       15.4943958414  W2        8675            0.0000000000
     26026      8676  TIP3      OH2            19.1451212922        5.9036836235       21.4173858414  W2        8676            0.0000000000
     26027      8676  TIP3      H1             18.4565812922        6.5617536235       21.3220458414  W2        8676            0.0000000000
     26028      8676  TIP3      H2             19.1605812922        5.7064736235       22.3539258414  W2        8676            0.0000000000
     26029      8677  TIP3      OH2             5.1964012922        4.2379536235       19.9948258414  W2        8677            0.0000000000
     26030      8677  TIP3      H1              4.9775712922        4.7680136235       19.2284258414  W2        8677            0.0000000000
     26031      8677  TIP3      H2              4.5284912922        4.4645036235       20.6419658414  W2        8677            0.0000000000
     26032      8678  TIP3      OH2            12.5653812922       13.7380636235       13.5387358414  W2        8678            0.0000000000
     26033      8678  TIP3      H1             12.2698912922       13.4152936235       12.6874258414  W2        8678            0.0000000000
     26034      8678  TIP3      H2             12.2411612922       14.6377336235       13.5799958414  W2        8678            0.0000000000
     26035      8679  TIP3      OH2             7.7655412922       11.9135236235       20.2821958414  W2        8679            0.0000000000
     26036      8679  TIP3      H1              7.0254512922       12.5116736235       20.3857158414  W2        8679            0.0000000000
     26037      8679  TIP3      H2              8.4794912922       12.4674836235       19.9665558414  W2        8679            0.0000000000
     26038      8680  TIP3      OH2            15.8723212922        4.7416036235       16.3021658414  W2        8680            0.0000000000
     26039      8680  TIP3      H1             15.6571212922        3.9759436235       16.8347658414  W2        8680            0.0000000000
     26040      8680  TIP3      H2             16.5280612922        5.2140636235       16.8150158414  W2        8680            0.0000000000
     26041      8681  TIP3      OH2             4.7901312922        6.1301336235       17.9470458414  W2        8681            0.0000000000
     26042      8681  TIP3      H1              5.4037612922        6.7628936235       18.3202858414  W2        8681            0.0000000000
     26043      8681  TIP3      H2              5.3022012922        5.6576336235       17.2907358414  W2        8681            0.0000000000
     26044      8682  TIP3      OH2             6.1729712922       13.8778236235       21.0693458414  W2        8682            0.0000000000
     26045      8682  TIP3      H1              6.1677312922       14.7571736235       20.6912758414  W2        8682            0.0000000000
     26046      8682  TIP3      H2              5.3193812922       13.7942336235       21.4943358414  W2        8682            0.0000000000
     26047      8683  TIP3      OH2             2.2940612922       13.5486136235       11.8512758414  W2        8683            0.0000000000
     26048      8683  TIP3      H1              2.0221512922       13.7777136235       10.9625658414  W2        8683            0.0000000000
     26049      8683  TIP3      H2              2.3396312922       14.3864936235       12.3118058414  W2        8683            0.0000000000
     26050      8684  TIP3      OH2            15.9190312922       15.1702036235       18.5641258414  W2        8684            0.0000000000
     26051      8684  TIP3      H1             14.9774012922       15.2285936235       18.7258158414  W2        8684            0.0000000000
     26052      8684  TIP3      H2             16.1956412922       16.0762536235       18.4270958414  W2        8684            0.0000000000
     26053      8685  TIP3      OH2            16.2197312922        3.4567336235       19.9815158414  W2        8685            0.0000000000
     26054      8685  TIP3      H1             15.4836512922        4.0674436235       19.9436458414  W2        8685            0.0000000000
     26055      8685  TIP3      H2             16.9031312922        3.8716336235       19.4551558414  W2        8685            0.0000000000
     26056      8686  TIP3      OH2             9.2228712922        1.5434636235       17.4473158414  W2        8686            0.0000000000
     26057      8686  TIP3      H1              9.1052912922        0.5950636235       17.3931458414  W2        8686            0.0000000000
     26058      8686  TIP3      H2              8.3678812922        1.8760736235       17.7204258414  W2        8686            0.0000000000
     26059      8687  TIP3      OH2            14.1711512922       16.9515536235       15.1892858414  W2        8687            0.0000000000
     26060      8687  TIP3      H1             14.5963812922       16.2443436235       14.7042458414  W2        8687            0.0000000000
     26061      8687  TIP3      H2             14.4881512922       17.7528236235       14.7725058414  W2        8687            0.0000000000
     26062      8688  TIP3      OH2            15.3308012922       14.8524036235       13.6979458414  W2        8688            0.0000000000
     26063      8688  TIP3      H1             15.0732812922       14.1624136235       13.0865358414  W2        8688            0.0000000000
     26064      8688  TIP3      H2             15.4018812922       14.4095236235       14.5435358414  W2        8688            0.0000000000
     26065      8689  TIP3      OH2            17.0168212922       13.4190736235       22.1752958414  W2        8689            0.0000000000
     26066      8689  TIP3      H1             17.1564512922       12.8273236235       21.4359958414  W2        8689            0.0000000000
     26067      8689  TIP3      H2             17.1841012922       14.2916636235       21.8191758414  W2        8689            0.0000000000
     26068      8690  TIP3      OH2            11.4893612922       10.3810236235       11.9478958414  W2        8690            0.0000000000
     26069      8690  TIP3      H1             10.7779112922       10.9159936235       11.5959458414  W2        8690            0.0000000000
     26070      8690  TIP3      H2             12.1803212922       10.4362336235       11.2877858414  W2        8690            0.0000000000
     26071      8691  TIP3      OH2            11.5432812922        8.8384536235        8.9863958414  W2        8691            0.0000000000
     26072      8691  TIP3      H1             12.2442712922        8.8611436235        9.6377958414  W2        8691            0.0000000000
     26073      8691  TIP3      H2             11.8455712922        8.2104236235        8.3303258414  W2        8691            0.0000000000
     26074      8692  TIP3      OH2            18.8587512922        9.7588736235       20.2413358414  W2        8692            0.0000000000
     26075      8692  TIP3      H1             18.2061612922       10.4534336235       20.3304258414  W2        8692            0.0000000000
     26076      8692  TIP3      H2             19.3237812922        9.9689636235       19.4314958414  W2        8692            0.0000000000
     26077      8693  TIP3      OH2            14.8951312922       10.5903536235       12.8994858414  W2        8693            0.0000000000
     26078      8693  TIP3      H1             14.1632312922       10.8187236235       13.4725458414  W2        8693            0.0000000000
     26079      8693  TIP3      H2             15.3423512922        9.8766236235       13.3542358414  W2        8693            0.0000000000
     26080      8694  TIP3      OH2            14.7924812922        8.7646136235       21.9671858414  W2        8694            0.0000000000
     26081      8694  TIP3      H1             14.8723912922        9.5280536235       22.5390358414  W2        8694            0.0000000000
     26082      8694  TIP3      H2             14.1912512922        9.0438536235       21.2766958414  W2        8694            0.0000000000
     26083      8695  TIP3      OH2             6.5405012922       11.2209736235       14.7819858414  W2        8695            0.0000000000
     26084      8695  TIP3      H1              6.2100212922       10.8503136235       13.9636858414  W2        8695            0.0000000000
     26085      8695  TIP3      H2              7.1289112922       10.5503736235       15.1288158414  W2        8695            0.0000000000
     26086      8696  TIP3      OH2             7.9072512922       14.6490336235       17.4632058414  W2        8696            0.0000000000
     26087      8696  TIP3      H1              7.8123812922       14.0703436235       16.7066658414  W2        8696            0.0000000000
     26088      8696  TIP3      H2              8.6366112922       14.2776036235       17.9594858414  W2        8696            0.0000000000
     26089      8697  TIP3      OH2             6.9070512922        9.9895336235       18.4154858414  W2        8697            0.0000000000
     26090      8697  TIP3      H1              7.4723012922       10.1109536235       17.6526058414  W2        8697            0.0000000000
     26091      8697  TIP3      H2              7.2259412922       10.6270336235       19.0543358414  W2        8697            0.0000000000
     26092      8698  TIP3      OH2            13.2162712922       15.4927236235       19.1495358414  W2        8698            0.0000000000
     26093      8698  TIP3      H1             12.9759312922       16.1550336235       19.7974558414  W2        8698            0.0000000000
     26094      8698  TIP3      H2             13.0180912922       14.6582436235       19.5744958414  W2        8698            0.0000000000
     26095      8699  TIP3      OH2             7.7871212922       14.3888036235       23.1326758414  W2        8699            0.0000000000
     26096      8699  TIP3      H1              7.4758712922       15.1711236235       23.5879958414  W2        8699            0.0000000000
     26097      8699  TIP3      H2              7.1371412922       14.2357136235       22.4468758414  W2        8699            0.0000000000
     26098      8700  TIP3      OH2            13.7660812922        9.7526436235       10.5846058414  W2        8700            0.0000000000
     26099      8700  TIP3      H1             14.3456312922        9.9026736235       11.3314958414  W2        8700            0.0000000000
     26100      8700  TIP3      H2             14.1800812922       10.2233836235        9.8612458414  W2        8700            0.0000000000
     26101      8701  TIP3      OH2             4.7071112922       10.5869136235       22.3612458414  W2        8701            0.0000000000
     26102      8701  TIP3      H1              4.7774312922       11.2375936235       23.0597458414  W2        8701            0.0000000000
     26103      8701  TIP3      H2              3.8163312922       10.6896636235       22.0263358414  W2        8701            0.0000000000
     26104      8702  TIP3      OH2            11.4925712922       16.4894936235       14.0199158414  W2        8702            0.0000000000
     26105      8702  TIP3      H1             11.9663312922       16.7851236235       14.7973358414  W2        8702            0.0000000000
     26106      8702  TIP3      H2             10.9295012922       17.2276536235       13.7868758414  W2        8702            0.0000000000
     26107      8703  TIP3      OH2             6.0267112922       16.4603036235       23.8960558414  W2        8703            0.0000000000
     26108      8703  TIP3      H1              6.0342412922       16.3242736235       22.9486058414  W2        8703            0.0000000000
     26109      8703  TIP3      H2              5.1107512922       16.3431136235       24.1480558414  W2        8703            0.0000000000
     26110      8704  TIP3      OH2            17.4649212922        1.5026836235       10.3975758414  W2        8704            0.0000000000
     26111      8704  TIP3      H1             16.5649912922        1.6415836235       10.6926358414  W2        8704            0.0000000000
     26112      8704  TIP3      H2             17.7167612922        2.3341436235        9.9957458414  W2        8704            0.0000000000
     26113      8705  TIP3      OH2             5.5307712922       10.2904036235       12.3712658414  W2        8705            0.0000000000
     26114      8705  TIP3      H1              5.2389012922       11.0585736235       11.8803958414  W2        8705            0.0000000000
     26115      8705  TIP3      H2              4.8562912922        9.6310236235       12.2084058414  W2        8705            0.0000000000
     26116      8706  TIP3      OH2            18.6540612922       15.8689236235        8.7739658414  W2        8706            0.0000000000
     26117      8706  TIP3      H1             18.7274112922       16.8079436235        8.9444958414  W2        8706            0.0000000000
     26118      8706  TIP3      H2             19.5595712922       15.5637836235        8.7176958414  W2        8706            0.0000000000
     26119      8707  TIP3      OH2             1.6237812922       12.6533236235       21.1862458414  W2        8707            0.0000000000
     26120      8707  TIP3      H1              1.1226212922       12.6252636235       20.3712158414  W2        8707            0.0000000000
     26121      8707  TIP3      H2              1.6291512922       11.7476436235       21.4959758414  W2        8707            0.0000000000
     26122      8708  TIP3      OH2             1.3740512922       15.4337036235       18.0702658414  W2        8708            0.0000000000
     26123      8708  TIP3      H1              2.3201112922       15.2894036235       18.0512158414  W2        8708            0.0000000000
     26124      8708  TIP3      H2              1.2616812922       16.2179836235       18.6073858414  W2        8708            0.0000000000
     26125      8709  TIP3      OH2            19.5719012922       16.0996736235       23.7526358414  W2        8709            0.0000000000
     26126      8709  TIP3      H1             19.5225812922       15.1444836235       23.7153958414  W2        8709            0.0000000000
     26127      8709  TIP3      H2             18.7451312922       16.3672036235       24.1540158414  W2        8709            0.0000000000
     26128      8710  TIP3      OH2            10.5503012922       15.6735936235       22.6287758414  W2        8710            0.0000000000
     26129      8710  TIP3      H1             10.6377612922       16.5000536235       23.1036858414  W2        8710            0.0000000000
     26130      8710  TIP3      H2              9.6868112922       15.3439736235       22.8777058414  W2        8710            0.0000000000
     26131      8711  TIP3      OH2            10.9648812922       19.4459636235       12.4348358414  W2        8711            0.0000000000
     26132      8711  TIP3      H1             10.8894812922       19.3246836235       11.4883558414  W2        8711            0.0000000000
     26133      8711  TIP3      H2             10.9977512922       20.3952336235       12.5532958414  W2        8711            0.0000000000
     26134      8712  TIP3      OH2             4.6182612922       18.2346636235       14.2157358414  W2        8712            0.0000000000
     26135      8712  TIP3      H1              4.7703012922       17.8867036235       15.0943858414  W2        8712            0.0000000000
     26136      8712  TIP3      H2              3.7673012922       17.8783936235       13.9604558414  W2        8712            0.0000000000
     26137      8713  TIP3      OH2            14.0664812922       18.5999836235        9.4370758414  W2        8713            0.0000000000
     26138      8713  TIP3      H1             14.4413212922       17.8555936235        8.9663358414  W2        8713            0.0000000000
     26139      8713  TIP3      H2             14.0708512922       18.3300436235       10.3554058414  W2        8713            0.0000000000
     26140      8714  TIP3      OH2            13.7352912922       18.5256936235       12.1862958414  W2        8714            0.0000000000
     26141      8714  TIP3      H1             12.8002712922       18.6258836235       12.3649958414  W2        8714            0.0000000000
     26142      8714  TIP3      H2             14.0154812922       17.8162936235       12.7646158414  W2        8714            0.0000000000
     26143      8715  TIP3      OH2            16.7238812922        7.5929236235       24.2328558414  W2        8715            0.0000000000
     26144      8715  TIP3      H1             16.3165612922        8.0734836235       23.5121858414  W2        8715            0.0000000000
     26145      8715  TIP3      H2             16.7644512922        6.6875236235       23.9249358414  W2        8715            0.0000000000
     26146      8716  TIP3      OH2             3.8728312922       13.9768636235       22.2295258414  W2        8716            0.0000000000
     26147      8716  TIP3      H1              4.0889612922       13.6154236235       23.0891058414  W2        8716            0.0000000000
     26148      8716  TIP3      H2              3.0173012922       13.6022436235       22.0198758414  W2        8716            0.0000000000
     26149      8717  TIP3      OH2             6.4916312922        2.4469136235       18.2249458414  W2        8717            0.0000000000
     26150      8717  TIP3      H1              5.6300012922        2.3597336235       17.8172358414  W2        8717            0.0000000000
     26151      8717  TIP3      H2              6.4692012922        3.3029236235       18.6527058414  W2        8717            0.0000000000
     26152      8718  TIP3      OH2            11.1544112922        2.1689536235       21.5996458414  W2        8718            0.0000000000
     26153      8718  TIP3      H1             11.5747212922        1.7536636235       22.3527058414  W2        8718            0.0000000000
     26154      8718  TIP3      H2             10.2213712922        1.9902836235       21.7168458414  W2        8718            0.0000000000
     26155      8719  TIP3      OH2            14.4809012922        5.9244736235       22.4530958414  W2        8719            0.0000000000
     26156      8719  TIP3      H1             13.9668512922        5.7986936235       23.2506958414  W2        8719            0.0000000000
     26157      8719  TIP3      H2             14.3253712922        6.8367836235       22.2087158414  W2        8719            0.0000000000
     26158      8720  TIP3      OH2            15.2433912922       10.7854736235        8.2143958414  W2        8720            0.0000000000
     26159      8720  TIP3      H1             15.2854712922       10.5628636235        7.2843958414  W2        8720            0.0000000000
     26160      8720  TIP3      H2             16.0926012922       11.1841836235        8.4043858414  W2        8720            0.0000000000
     26161      8721  TIP3      OH2            10.8161412922        4.6612936235        8.8847258414  W2        8721            0.0000000000
     26162      8721  TIP3      H1             10.5626212922        4.6804536235        9.8075358414  W2        8721            0.0000000000
     26163      8721  TIP3      H2             10.5593512922        3.7898336235        8.5833458414  W2        8721            0.0000000000
     26164      8722  TIP3      OH2             6.5826412922        7.4123636235       19.3199658414  W2        8722            0.0000000000
     26165      8722  TIP3      H1              5.9408512922        7.3720936235       20.0289758414  W2        8722            0.0000000000
     26166      8722  TIP3      H2              6.6198412922        8.3388336235       19.0822658414  W2        8722            0.0000000000
     26167      8723  TIP3      OH2             6.5795512922        7.6333736235       14.2319658414  W2        8723            0.0000000000
     26168      8723  TIP3      H1              5.6868412922        7.2929836235       14.1733458414  W2        8723            0.0000000000
     26169      8723  TIP3      H2              7.0302112922        7.2564636235       13.4762858414  W2        8723            0.0000000000
     26170      8724  TIP3      OH2            12.1151012922        8.0494036235       13.0490458414  W2        8724            0.0000000000
     26171      8724  TIP3      H1             11.7061312922        8.8642636235       12.7575258414  W2        8724            0.0000000000
     26172      8724  TIP3      H2             12.8357212922        7.9094136235       12.4347558414  W2        8724            0.0000000000
     26173      8725  TIP3      OH2            11.2172612922        8.2250436235       24.5371158414  W2        8725            0.0000000000
     26174      8725  TIP3      H1             10.6546412922        7.5202036235       24.8578958414  W2        8725            0.0000000000
     26175      8725  TIP3      H2             12.0436012922        8.1042336235       25.0048758414  W2        8725            0.0000000000
     26176      8726  TIP3      OH2            13.1198712922        7.4954436235       15.8630158414  W2        8726            0.0000000000
     26177      8726  TIP3      H1             12.9243212922        8.1011236235       15.1480758414  W2        8726            0.0000000000
     26178      8726  TIP3      H2             13.3011312922        6.6619636235       15.4286458414  W2        8726            0.0000000000
     26179      8727  TIP3      OH2             4.3326912922        7.7327136235       21.1871658414  W2        8727            0.0000000000
     26180      8727  TIP3      H1              4.2946312922        8.1328736235       22.0558758414  W2        8727            0.0000000000
     26181      8727  TIP3      H2              3.8418012922        6.9159536235       21.2774558414  W2        8727            0.0000000000
     26182      8728  TIP3      OH2             7.6984312922        5.1069436235        7.9857658414  W2        8728            0.0000000000
     26183      8728  TIP3      H1              7.2675012922        4.6619536235        8.7155058414  W2        8728            0.0000000000
     26184      8728  TIP3      H2              6.9803012922        5.4785736235        7.4735158414  W2        8728            0.0000000000
     26185      8729  TIP3      OH2             0.9407712922        4.8488936235       15.0376358414  W2        8729            0.0000000000
     26186      8729  TIP3      H1              1.5715412922        4.8201036235       15.7570258414  W2        8729            0.0000000000
     26187      8729  TIP3      H2              1.3902012922        4.4237636235       14.3072258414  W2        8729            0.0000000000
     26188      8730  TIP3      OH2             2.2149812922        5.5950936235       10.4616758414  W2        8730            0.0000000000
     26189      8730  TIP3      H1              2.6891512922        6.1860836235        9.8767658414  W2        8730            0.0000000000
     26190      8730  TIP3      H2              1.4976212922        6.1253836235       10.8086858414  W2        8730            0.0000000000
     26191      8731  TIP3      OH2            12.3837912922        9.1335736235       20.5342558414  W2        8731            0.0000000000
     26192      8731  TIP3      H1             12.7072712922        8.5025436235       19.8913058414  W2        8731            0.0000000000
     26193      8731  TIP3      H2             11.9437212922        8.5987936235       21.1949958414  W2        8731            0.0000000000
     26194      8732  TIP3      OH2             9.1610812922        5.0611236235       15.3183758414  W2        8732            0.0000000000
     26195      8732  TIP3      H1              8.2501912922        5.1178036235       15.6069758414  W2        8732            0.0000000000
     26196      8732  TIP3      H2              9.6663712922        5.0006736235       16.1290958414  W2        8732            0.0000000000
     26197      8733  TIP3      OH2             3.9894212922        6.6897536235       14.1451358414  W2        8733            0.0000000000
     26198      8733  TIP3      H1              3.1002212922        6.7893036235       13.8050958414  W2        8733            0.0000000000
     26199      8733  TIP3      H2              4.2859112922        5.8480536235       13.7989258414  W2        8733            0.0000000000
     26200      8734  TIP3      OH2             7.6426012922        6.6900136235       11.8015958414  W2        8734            0.0000000000
     26201      8734  TIP3      H1              8.5741512922        6.8190136235       11.9799058414  W2        8734            0.0000000000
     26202      8734  TIP3      H2              7.4276312922        7.3594436235       11.1520658414  W2        8734            0.0000000000
     26203      8735  TIP3      OH2            13.5662712922        4.2957536235       18.5825558414  W2        8735            0.0000000000
     26204      8735  TIP3      H1             12.8894312922        4.4270636235       19.2465258414  W2        8735            0.0000000000
     26205      8735  TIP3      H2             13.0807612922        4.1407036235       17.7723258414  W2        8735            0.0000000000
     26206      8736  TIP3      OH2             6.3166212922        7.8842336235        9.3682058414  W2        8736            0.0000000000
     26207      8736  TIP3      H1              5.7741312922        7.5046136235        8.6769658414  W2        8736            0.0000000000
     26208      8736  TIP3      H2              7.1501112922        8.0787036235        8.9396158414  W2        8736            0.0000000000
     26209      8737  TIP3      OH2            16.8537812922       19.9672936235       24.8593158414  W2        8737            0.0000000000
     26210      8737  TIP3      H1             17.0536512922       20.3914836235       24.0248458414  W2        8737            0.0000000000
     26211      8737  TIP3      H2             17.5091512922       20.3111136235       25.4663558414  W2        8737            0.0000000000
     26212      8738  TIP3      OH2             4.4517612922       12.4414236235       24.4673658414  W2        8738            0.0000000000
     26213      8738  TIP3      H1              5.1840012922       12.6960136235       25.0288158414  W2        8738            0.0000000000
     26214      8738  TIP3      H2              3.6716312922       12.6459636235       24.9829058414  W2        8738            0.0000000000
     26215      8739  TIP3      OH2            10.4810512922        7.8484236235       17.2053358414  W2        8739            0.0000000000
     26216      8739  TIP3      H1             11.0453912922        7.3020836235       16.6582958414  W2        8739            0.0000000000
     26217      8739  TIP3      H2             10.3333912922        7.3266136235       17.9940958414  W2        8739            0.0000000000
     26218      8740  TIP3      OH2             5.4830212922        3.9850336235       13.6238158414  W2        8740            0.0000000000
     26219      8740  TIP3      H1              5.1659712922        3.0825636235       13.5883558414  W2        8740            0.0000000000
     26220      8740  TIP3      H2              6.2644312922        3.9867736235       13.0709758414  W2        8740            0.0000000000
     26221      8741  TIP3      OH2             9.1076412922        6.2370336235       19.6193758414  W2        8741            0.0000000000
     26222      8741  TIP3      H1              8.2721712922        6.6909836235       19.7296158414  W2        8741            0.0000000000
     26223      8741  TIP3      H2              9.6317012922        6.5128836235       20.3713658414  W2        8741            0.0000000000
     26224      8742  TIP3      OH2             9.6519012922       12.4498036235       11.3040158414  W2        8742            0.0000000000
     26225      8742  TIP3      H1              8.9070012922       11.9423336235       10.9818058414  W2        8742            0.0000000000
     26226      8742  TIP3      H2              9.5176212922       12.4986036235       12.2504958414  W2        8742            0.0000000000
     26227      8743  TIP3      OH2            16.8017912922       11.5826236235       20.0907758414  W2        8743            0.0000000000
     26228      8743  TIP3      H1             17.4436712922       12.0392536235       19.5469958414  W2        8743            0.0000000000
     26229      8743  TIP3      H2             15.9714812922       11.6958636235       19.6281858414  W2        8743            0.0000000000
     26230      8744  TIP3      OH2            13.5495812922        5.2637936235        9.5032758414  W2        8744            0.0000000000
     26231      8744  TIP3      H1             12.6110012922        5.3753536235        9.3521558414  W2        8744            0.0000000000
     26232      8744  TIP3      H2             13.8467912922        6.1204836235        9.8098458414  W2        8744            0.0000000000
     26233      8745  TIP3      OH2            11.1711112922       12.6341336235       22.5409258414  W2        8745            0.0000000000
     26234      8745  TIP3      H1             10.8257212922       12.2523736235       23.3478858414  W2        8745            0.0000000000
     26235      8745  TIP3      H2             10.9711212922       13.5674936235       22.6122158414  W2        8745            0.0000000000
     26236      8746  TIP3      OH2            14.2679312922        7.1310636235       11.1640158414  W2        8746            0.0000000000
     26237      8746  TIP3      H1             15.1598312922        6.9935636235       11.4831358414  W2        8746            0.0000000000
     26238      8746  TIP3      H2             14.3242912922        7.9216736235       10.6273658414  W2        8746            0.0000000000
     26239      8747  TIP3      OH2             4.7767312922       11.7448036235       17.0738058414  W2        8747            0.0000000000
     26240      8747  TIP3      H1              5.5214512922       11.7423736235       16.4724558414  W2        8747            0.0000000000
     26241      8747  TIP3      H2              4.8543912922       10.9211836235       17.5553158414  W2        8747            0.0000000000
     26242      8748  TIP3      OH2            11.7773112922       13.9082336235       10.3294758414  W2        8748            0.0000000000
     26243      8748  TIP3      H1             11.4821512922       14.7350236235       10.7109558414  W2        8748            0.0000000000
     26244      8748  TIP3      H2             11.0743112922       13.2889236235       10.5256158414  W2        8748            0.0000000000
     26245      8749  TIP3      OH2             1.7847012922       10.2054936235       22.3886558414  W2        8749            0.0000000000
     26246      8749  TIP3      H1              2.0075612922        9.7874536235       23.2204058414  W2        8749            0.0000000000
     26247      8749  TIP3      H2              1.1827112922        9.5929936235       21.9659358414  W2        8749            0.0000000000
     26248      8750  TIP3      OH2             8.8011912922        9.7224836235       24.6016258414  W2        8750            0.0000000000
     26249      8750  TIP3      H1              8.5052712922        9.5567836235       23.7065358414  W2        8750            0.0000000000
     26250      8750  TIP3      H2              9.7327112922        9.5025136235       24.5910158414  W2        8750            0.0000000000
     26251      8751  TIP3      OH2            13.4214712922       15.0956836235       22.4914258414  W2        8751            0.0000000000
     26252      8751  TIP3      H1             12.5209012922       15.2789436235       22.2238158414  W2        8751            0.0000000000
     26253      8751  TIP3      H2             13.4555812922       15.3546136235       23.4123058414  W2        8751            0.0000000000
     26254      8752  TIP3      OH2            19.1528012922        7.3404736235       10.8586858414  W2        8752            0.0000000000
     26255      8752  TIP3      H1             18.5984312922        6.9442736235       10.1864358414  W2        8752            0.0000000000
     26256      8752  TIP3      H2             19.2531612922        8.2509936235       10.5810158414  W2        8752            0.0000000000
     26257      8753  TIP3      OH2            19.1160012922       13.1406436235       23.6958358414  W2        8753            0.0000000000
     26258      8753  TIP3      H1             18.2648512922       13.3790236235       23.3284758414  W2        8753            0.0000000000
     26259      8753  TIP3      H2             19.7063412922       13.1239636235       22.9425458414  W2        8753            0.0000000000
     26260      8754  TIP3      OH2            17.4479712922       16.1265136235       11.3238958414  W2        8754            0.0000000000
     26261      8754  TIP3      H1             17.0750812922       15.3008936235       11.6329558414  W2        8754            0.0000000000
     26262      8754  TIP3      H2             17.7253212922       15.9434536235       10.4262358414  W2        8754            0.0000000000
     26263      8755  TIP3      OH2            14.6083612922       10.9344636235       18.3450858414  W2        8755            0.0000000000
     26264      8755  TIP3      H1             13.6800512922       10.7026536235       18.3180158414  W2        8755            0.0000000000
     26265      8755  TIP3      H2             15.0594712922       10.1574436235       18.0149658414  W2        8755            0.0000000000
     26266      8756  TIP3      OH2             7.1516712922       15.2626236235       14.4779558414  W2        8756            0.0000000000
     26267      8756  TIP3      H1              7.6788912922       16.0360636235       14.2778358414  W2        8756            0.0000000000
     26268      8756  TIP3      H2              6.2715212922       15.4875436235       14.1763558414  W2        8756            0.0000000000
     26269      8757  TIP3      OH2             2.9064412922       10.1250336235        9.0651958414  W2        8757            0.0000000000
     26270      8757  TIP3      H1              3.5224312922       10.7517536235        9.4446758414  W2        8757            0.0000000000
     26271      8757  TIP3      H2              2.0447012922       10.4410136235        9.3368458414  W2        8757            0.0000000000
     26272      8758  TIP3      OH2             8.5789012922       12.9256136235       14.0543858414  W2        8758            0.0000000000
     26273      8758  TIP3      H1              8.3379012922       13.8510536235       14.0959158414  W2        8758            0.0000000000
     26274      8758  TIP3      H2              7.8382612922       12.4667436235       14.4507758414  W2        8758            0.0000000000
     26275      8759  TIP3      OH2             9.0935612922       17.0749736235       20.3694958414  W2        8759            0.0000000000
     26276      8759  TIP3      H1              9.4560312922       17.9295336235       20.1359358414  W2        8759            0.0000000000
     26277      8759  TIP3      H2              9.6250812922       16.7831336235       21.1101258414  W2        8759            0.0000000000
     26278      8760  TIP3      OH2             7.2619812922       17.9473736235       13.5996058414  W2        8760            0.0000000000
     26279      8760  TIP3      H1              6.3120312922       18.0531136235       13.6509358414  W2        8760            0.0000000000
     26280      8760  TIP3      H2              7.6137912922       18.7681136235       13.9443558414  W2        8760            0.0000000000
     26281      8761  TIP3      OH2            12.6376412922       13.1740436235       20.0700558414  W2        8761            0.0000000000
     26282      8761  TIP3      H1             12.2117712922       12.9462136235       20.8964558414  W2        8761            0.0000000000
     26283      8761  TIP3      H2             13.2182212922       12.4352236235       19.8875858414  W2        8761            0.0000000000
     26284      8762  TIP3      OH2            14.8405312922       14.1030936235        9.1439558414  W2        8762            0.0000000000
     26285      8762  TIP3      H1             15.1938412922       13.7230736235        9.9483058414  W2        8762            0.0000000000
     26286      8762  TIP3      H2             13.8918812922       14.0095736235        9.2308858414  W2        8762            0.0000000000
     26287      8763  TIP3      OH2            15.2960612922       17.7259936235       22.5395358414  W2        8763            0.0000000000
     26288      8763  TIP3      H1             14.6943812922       17.1702836235       22.0441658414  W2        8763            0.0000000000
     26289      8763  TIP3      H2             15.5774312922       18.3929736235       21.9132758414  W2        8763            0.0000000000
     26290      8764  TIP3      OH2            19.3439712922       18.5823436235        9.3449758414  W2        8764            0.0000000000
     26291      8764  TIP3      H1             20.0877612922       19.1683936235        9.2051358414  W2        8764            0.0000000000
     26292      8764  TIP3      H2             18.6497812922       19.1509236235        9.6782158414  W2        8764            0.0000000000
     26293      8765  TIP3      OH2             3.4186512922        4.9587636235       21.9467958414  W2        8765            0.0000000000
     26294      8765  TIP3      H1              2.5258812922        5.2973036235       21.8791958414  W2        8765            0.0000000000
     26295      8765  TIP3      H2              3.3199312922        4.1033736235       22.3648758414  W2        8765            0.0000000000
     26296      8766  TIP3      OH2            15.7064612922       12.7752936235       11.3707458414  W2        8766            0.0000000000
     26297      8766  TIP3      H1             15.4292212922       12.0472236235       11.9268558414  W2        8766            0.0000000000
     26298      8766  TIP3      H2             16.6337612922       12.8944936235       11.5760058414  W2        8766            0.0000000000
     26299      8767  TIP3      OH2             3.0698512922       16.7632036235       20.3817358414  W2        8767            0.0000000000
     26300      8767  TIP3      H1              3.2868812922       15.8314436235       20.3507058414  W2        8767            0.0000000000
     26301      8767  TIP3      H2              3.3162012922       17.0377036235       21.2650158414  W2        8767            0.0000000000
     26302      8768  TIP3      OH2             8.9313112922       15.2147036235        7.5909558414  W2        8768            0.0000000000
     26303      8768  TIP3      H1              9.1702912922       14.4665136235        7.0438458414  W2        8768            0.0000000000
     26304      8768  TIP3      H2              8.6624412922       14.8268736235        8.4237358414  W2        8768            0.0000000000
     26305      8769  TIP3      OH2             7.8683712922       14.7850836235       10.0472158414  W2        8769            0.0000000000
     26306      8769  TIP3      H1              8.0151712922       14.2650636235       10.8373058414  W2        8769            0.0000000000
     26307      8769  TIP3      H2              7.8655412922       15.6918436235       10.3538058414  W2        8769            0.0000000000
     26308      8770  TIP3      OH2             4.3214812922       12.0374136235       10.5577558414  W2        8770            0.0000000000
     26309      8770  TIP3      H1              3.6354112922       12.3896636235       11.1247258414  W2        8770            0.0000000000
     26310      8770  TIP3      H2              4.8442712922       12.8003736235       10.3111858414  W2        8770            0.0000000000
     26311      8771  TIP3      OH2            12.1529912922        4.6997936235       20.8366558414  W2        8771            0.0000000000
     26312      8771  TIP3      H1             12.8517812922        4.7736636235       21.4866258414  W2        8771            0.0000000000
     26313      8771  TIP3      H2             11.7721312922        3.8352936235       20.9909458414  W2        8771            0.0000000000
     26314      8772  TIP3      OH2            12.9374812922        4.3519636235       11.9338858414  W2        8772            0.0000000000
     26315      8772  TIP3      H1             13.1573112922        4.8235036235       11.1304258414  W2        8772            0.0000000000
     26316      8772  TIP3      H2             13.4958812922        4.7462236235       12.6039458414  W2        8772            0.0000000000
     26317      8773  TIP3      OH2            10.6060912922       16.4824436235       10.7966358414  W2        8773            0.0000000000
     26318      8773  TIP3      H1              9.7897012922       16.9794136235       10.8490658414  W2        8773            0.0000000000
     26319      8773  TIP3      H2             11.1357212922       16.9577936235       10.1565158414  W2        8773            0.0000000000
     26320      8774  TIP3      OH2            10.1374712922        6.0798436235       12.7687258414  W2        8774            0.0000000000
     26321      8774  TIP3      H1             10.9497312922        6.5841636235       12.8148958414  W2        8774            0.0000000000
     26322      8774  TIP3      H2              9.8927712922        5.9348136235       13.6826858414  W2        8774            0.0000000000
     26323      8775  TIP3      OH2            10.6731112922        7.0661136235       21.9533858414  W2        8775            0.0000000000
     26324      8775  TIP3      H1             10.7921412922        7.6396536235       22.7104258414  W2        8775            0.0000000000
     26325      8775  TIP3      H2             11.3285712922        6.3780536235       22.0681658414  W2        8775            0.0000000000
     26326      8776  TIP3      OH2            11.0211412922        3.1611436235       13.7068358414  W2        8776            0.0000000000
     26327      8776  TIP3      H1             10.6744912922        3.7782036235       14.3512658414  W2        8776            0.0000000000
     26328      8776  TIP3      H2             11.6798312922        3.6617136235       13.2253858414  W2        8776            0.0000000000
     26329      8777  TIP3      OH2             7.9444012922       17.5261636235       10.7783258414  W2        8777            0.0000000000
     26330      8777  TIP3      H1              8.1052712922       18.3259136235       10.2775858414  W2        8777            0.0000000000
     26331      8777  TIP3      H2              7.7471812922       17.8327636235       11.6633858414  W2        8777            0.0000000000
     26332      8778  TIP3      OH2             6.6788412922        4.2240836235       10.3940858414  W2        8778            0.0000000000
     26333      8778  TIP3      H1              6.5953212922        5.1123936235       10.7407258414  W2        8778            0.0000000000
     26334      8778  TIP3      H2              7.5688712922        3.9587536235       10.6257658414  W2        8778            0.0000000000
     26335      8779  TIP3      OH2            16.8776912922        4.9731436235       22.7883558414  W2        8779            0.0000000000
     26336      8779  TIP3      H1             15.9612712922        5.2353136235       22.7007258414  W2        8779            0.0000000000
     26337      8779  TIP3      H2             17.2131912922        4.9700436235       21.8918858414  W2        8779            0.0000000000
     26338      8780  TIP3      OH2            15.4797912922        8.7232436235       16.8840858414  W2        8780            0.0000000000
     26339      8780  TIP3      H1             14.6822312922        8.3082636235       16.5555858414  W2        8780            0.0000000000
     26340      8780  TIP3      H2             15.9249012922        8.0326136235       17.3751358414  W2        8780            0.0000000000
     26341      8781  TIP3      OH2             4.9373712922       14.6513036235        9.4545358414  W2        8781            0.0000000000
     26342      8781  TIP3      H1              5.5295212922       15.3507836235        9.7307758414  W2        8781            0.0000000000
     26343      8781  TIP3      H2              5.3966712922       14.2182536235        8.7349958414  W2        8781            0.0000000000
     26344      8782  TIP3      OH2             3.2532912922        7.3156036235        8.5704758414  W2        8782            0.0000000000
     26345      8782  TIP3      H1              3.2085512922        8.2549136235        8.7491758414  W2        8782            0.0000000000
     26346      8782  TIP3      H2              2.3656112922        7.0800936235        8.3006858414  W2        8782            0.0000000000
     26347      8783  TIP3      OH2            16.5662512922       17.9794936235       18.5064358414  W2        8783            0.0000000000
     26348      8783  TIP3      H1             16.4106812922       18.6579336235       17.8493658414  W2        8783            0.0000000000
     26349      8783  TIP3      H2             17.4988912922       18.0514236235       18.7094958414  W2        8783            0.0000000000
     26350      8784  TIP3      OH2             4.0614912922        2.0972636235       17.2435758414  W2        8784            0.0000000000
     26351      8784  TIP3      H1              3.8324712922        2.1565136235       16.3160758414  W2        8784            0.0000000000
     26352      8784  TIP3      H2              3.6188312922        1.3058136235       17.5499858414  W2        8784            0.0000000000
     26353      8785  TIP3      OH2             2.9918212922       16.0379736235       13.4041558414  W2        8785            0.0000000000
     26354      8785  TIP3      H1              2.1596812922       16.5102436235       13.4312958414  W2        8785            0.0000000000
     26355      8785  TIP3      H2              3.5376512922       16.5477336235       12.8054658414  W2        8785            0.0000000000
     26356      8786  TIP3      OH2             2.2801912922       18.6503436235       24.7339558414  W2        8786            0.0000000000
     26357      8786  TIP3      H1              2.8204112922       18.4337436235       25.4938758414  W2        8786            0.0000000000
     26358      8786  TIP3      H2              1.7989912922       17.8449436235       24.5442058414  W2        8786            0.0000000000
     26359      8787  TIP3      OH2             6.8775312922       17.5697836235       26.3543758414  W2        8787            0.0000000000
     26360      8787  TIP3      H1              7.6452512922       17.1108636235       26.6952958414  W2        8787            0.0000000000
     26361      8787  TIP3      H2              6.8561512922       17.3437636235       25.4244958414  W2        8787            0.0000000000
     26362      8788  TIP3      OH2            10.9694912922       17.0778436235        7.7295558414  W2        8788            0.0000000000
     26363      8788  TIP3      H1             10.3255912922       16.4467036235        8.0509258414  W2        8788            0.0000000000
     26364      8788  TIP3      H2             11.7313212922       16.5466436235        7.4979058414  W2        8788            0.0000000000
     26365      8789  TIP3      OH2            13.4544012922       15.9498936235       25.0835258414  W2        8789            0.0000000000
     26366      8789  TIP3      H1             13.1033512922       15.0931936235       25.3265658414  W2        8789            0.0000000000
     26367      8789  TIP3      H2             14.1807212922       16.0925636235       25.6904258414  W2        8789            0.0000000000
     26368      8790  TIP3      OH2            15.5737812922       16.8948336235        7.9633558414  W2        8790            0.0000000000
     26369      8790  TIP3      H1             15.8568212922       16.1003536235        8.4160458414  W2        8790            0.0000000000
     26370      8790  TIP3      H2             16.3135712922       17.1279336235        7.4024658414  W2        8790            0.0000000000
     26371      8791  TIP3      OH2             2.1871412922       12.4607536235       25.6883858414  W2        8791            0.0000000000
     26372      8791  TIP3      H1              2.3311912922       11.5588236235       25.4020558414  W2        8791            0.0000000000
     26373      8791  TIP3      H2              1.4148812922       12.7469636235       25.2006158414  W2        8791            0.0000000000
     26374      8792  TIP3      OH2             6.5285112922       12.8043236235        7.8208458414  W2        8792            0.0000000000
     26375      8792  TIP3      H1              6.5929212922       12.0102836235        8.3514858414  W2        8792            0.0000000000
     26376      8792  TIP3      H2              7.1814312922       12.6856036235        7.1310458414  W2        8792            0.0000000000
     26377      8793  TIP3      OH2             8.8427512922       12.4305636235       25.1210258414  W2        8793            0.0000000000
     26378      8793  TIP3      H1              8.5141312922       12.7013736235       24.2637658414  W2        8793            0.0000000000
     26379      8793  TIP3      H2              8.9945712922       11.4895436235       25.0335258414  W2        8793            0.0000000000
     26380      8794  TIP3      OH2            11.8808512922       13.8514936235        7.5566458414  W2        8794            0.0000000000
     26381      8794  TIP3      H1             11.6122612922       14.0317036235        8.4575358414  W2        8794            0.0000000000
     26382      8794  TIP3      H2             11.6744112922       12.9261136235        7.4252258414  W2        8794            0.0000000000
     26383      8795  TIP3      OH2            14.5772712922       12.3462936235       22.5042558414  W2        8795            0.0000000000
     26384      8795  TIP3      H1             15.3227512922       12.9346636235       22.3846558414  W2        8795            0.0000000000
     26385      8795  TIP3      H2             13.8199512922       12.9282636235       22.5675658414  W2        8795            0.0000000000
     26386      8796  TIP3      OH2             3.0197912922        9.6610836235       25.1083158414  W2        8796            0.0000000000
     26387      8796  TIP3      H1              3.4279112922        8.8037436235       24.9873758414  W2        8796            0.0000000000
     26388      8796  TIP3      H2              2.7595512922        9.6752136235       26.0293458414  W2        8796            0.0000000000
     26389      8797  TIP3      OH2             7.6778912922       10.7769436235       10.1266458414  W2        8797            0.0000000000
     26390      8797  TIP3      H1              7.2180912922       10.2927736235       10.8124958414  W2        8797            0.0000000000
     26391      8797  TIP3      H2              7.9327612922       10.1084836235        9.4906958414  W2        8797            0.0000000000
     26392      8798  TIP3      OH2             6.9668212922        8.6696536235       22.4826058414  W2        8798            0.0000000000
     26393      8798  TIP3      H1              6.3484312922        9.3443136235       22.7630758414  W2        8798            0.0000000000
     26394      8798  TIP3      H2              7.3109412922        8.9910436235       21.6492258414  W2        8798            0.0000000000
     26395      8799  TIP3      OH2             8.7489312922        9.0201236235        8.3889658414  W2        8799            0.0000000000
     26396      8799  TIP3      H1              8.5684312922        8.8652436235        7.4617958414  W2        8799            0.0000000000
     26397      8799  TIP3      H2              9.6989812922        9.1279936235        8.4337558414  W2        8799            0.0000000000
     26398      8800  TIP3      OH2            11.9866412922       11.1411836235       25.7600858414  W2        8800            0.0000000000
     26399      8800  TIP3      H1             12.9397612922       11.2250936235       25.7326858414  W2        8800            0.0000000000
     26400      8800  TIP3      H2             11.8261012922       10.4293636235       26.3795758414  W2        8800            0.0000000000
     26401      8801  TIP3      OH2            18.1387612922       11.3745436235        7.8347758414  W2        8801            0.0000000000
     26402      8801  TIP3      H1             17.8652412922       10.9500936235        7.0216058414  W2        8801            0.0000000000
     26403      8801  TIP3      H2             18.1781712922       12.3059936235        7.6178158414  W2        8801            0.0000000000
     26404      8802  TIP3      OH2             7.3061912922        6.0247336235       23.5649158414  W2        8802            0.0000000000
     26405      8802  TIP3      H1              7.4562812922        5.2958636235       22.9628858414  W2        8802            0.0000000000
     26406      8802  TIP3      H2              7.3084312922        6.8019036235       23.0061358414  W2        8802            0.0000000000
     26407      8803  TIP3      OH2             7.7187612922        4.3943136235       21.0576558414  W2        8803            0.0000000000
     26408      8803  TIP3      H1              8.2545112922        4.8459836235       20.4055858414  W2        8803            0.0000000000
     26409      8803  TIP3      H2              6.8667212922        4.2862936235       20.6350658414  W2        8803            0.0000000000
     26410      8804  TIP3      OH2             9.3006012922        9.8339336235       21.2971758414  W2        8804            0.0000000000
     26411      8804  TIP3      H1             10.0510812922        9.6776836235       20.7239558414  W2        8804            0.0000000000
     26412      8804  TIP3      H2              8.9614312922       10.6855936235       21.0217258414  W2        8804            0.0000000000
     26413      8805  TIP3      OH2            13.7162212922        7.6491136235       26.3257058414  W2        8805            0.0000000000
     26414      8805  TIP3      H1             13.9083512922        6.7180536235       26.2141558414  W2        8805            0.0000000000
     26415      8805  TIP3      H2             14.5738512922        8.0740636235       26.3152458414  W2        8805            0.0000000000
     26416      8806  TIP3      OH2            15.0329412922       10.4376336235       24.4029758414  W2        8806            0.0000000000
     26417      8806  TIP3      H1             14.7514412922       11.1470936235       23.8253558414  W2        8806            0.0000000000
     26418      8806  TIP3      H2             15.9753712922       10.3649336235       24.2520958414  W2        8806            0.0000000000
     26419      8807  TIP3      OH2             5.7848212922        7.2230836235       25.4764758414  W2        8807            0.0000000000
     26420      8807  TIP3      H1              5.0177212922        6.6905636235       25.2662358414  W2        8807            0.0000000000
     26421      8807  TIP3      H2              6.4637212922        6.9131236235       24.8771058414  W2        8807            0.0000000000
     26422      8808  TIP3      OH2             8.5243112922        1.8508836235       21.4890158414  W2        8808            0.0000000000
     26423      8808  TIP3      H1              8.4262712922        2.7972036235       21.3836358414  W2        8808            0.0000000000
     26424      8808  TIP3      H2              7.7819312922        1.4782636235       21.0133658414  W2        8808            0.0000000000
     26425      8809  TIP3      OH2             9.7883612922        6.1724236235       25.0528558414  W2        8809            0.0000000000
     26426      8809  TIP3      H1              9.5529012922        5.9530936235       25.9543458414  W2        8809            0.0000000000
     26427      8809  TIP3      H2              9.0050512922        5.9655436235       24.5431058414  W2        8809            0.0000000000
     26428      8810  TIP3      OH2            12.5040212922        5.2997736235       24.1282058414  W2        8810            0.0000000000
     26429      8810  TIP3      H1             11.5565612922        5.3317436235       24.2605358414  W2        8810            0.0000000000
     26430      8810  TIP3      H2             12.8166912922        4.6744836235       24.7820258414  W2        8810            0.0000000000
     26431      8811  TIP3      OH2            14.1381712922        3.9338836235       26.1333958414  W2        8811            0.0000000000
     26432      8811  TIP3      H1             14.0413512922        2.9816136235       26.1275858414  W2        8811            0.0000000000
     26433      8811  TIP3      H2             13.8164812922        4.2025636235       26.9939458414  W2        8811            0.0000000000
     26434      8812  TIP3      OH2             3.9651012922        5.1434636235       25.1809458414  W2        8812            0.0000000000
     26435      8812  TIP3      H1              4.1768412922        4.4370736235       24.5706958414  W2        8812            0.0000000000
     26436      8812  TIP3      H2              3.8538512922        4.7060636235       26.0250658414  W2        8812            0.0000000000
     26437      8813  TIP3      OH2             8.7461212922        1.1446236235       24.1602958414  W2        8813            0.0000000000
     26438      8813  TIP3      H1              9.4579612922        0.5048436235       24.1462058414  W2        8813            0.0000000000
     26439      8813  TIP3      H2              8.6451612922        1.4114536235       23.2466058414  W2        8813            0.0000000000
     26440      8814  TIP3      OH2             9.0998712922        2.8274636235       26.2139258414  W2        8814            0.0000000000
     26441      8814  TIP3      H1              8.9680912922        2.3518436235       25.3937758414  W2        8814            0.0000000000
     26442      8814  TIP3      H2              8.5006112922        3.5718236235       26.1586358414  W2        8814            0.0000000000
     26443      8815  TIP3      OH2             8.6461012922       19.7104936235        9.3903258414  W2        8815            0.0000000000
     26444      8815  TIP3      H1              9.5791712922       19.8683636235        9.5341658414  W2        8815            0.0000000000
     26445      8815  TIP3      H2              8.3819812922       20.3857936235        8.7654758414  W2        8815            0.0000000000
     26446      8816  TIP3      OH2             2.2145912922       14.3468736235        8.8731358414  W2        8816            0.0000000000
     26447      8816  TIP3      H1              3.1285112922       14.4257636235        9.1465258414  W2        8816            0.0000000000
     26448      8816  TIP3      H2              2.2219012922       13.6598336235        8.2066958414  W2        8816            0.0000000000
     26449      8817  TIP3      OH2             0.8636512922       19.7397236235       13.9505258414  W2        8817            0.0000000000
     26450      8817  TIP3      H1              0.2163612922       19.2778936235       13.4176458414  W2        8817            0.0000000000
     26451      8817  TIP3      H2              1.2181112922       19.0680536235       14.5331458414  W2        8817            0.0000000000
     26452      8818  TIP3      OH2             1.7335712922       17.8204236235       15.7551458414  W2        8818            0.0000000000
     26453      8818  TIP3      H1              1.3992512922       16.9401536235       15.9271658414  W2        8818            0.0000000000
     26454      8818  TIP3      H2              1.9558112922       18.1659236235       16.6197058414  W2        8818            0.0000000000
     26455      8819  TIP3      OH2            19.2820512922       18.6300636235       18.7356258414  W2        8819            0.0000000000
     26456      8819  TIP3      H1             19.2607212922       18.8149036235       19.6745658414  W2        8819            0.0000000000
     26457      8819  TIP3      H2             19.9726712922       19.1984636235       18.3947658414  W2        8819            0.0000000000
     26458      8820  TIP3      OH2            18.8453412922       18.1971736235       21.6575358414  W2        8820            0.0000000000
     26459      8820  TIP3      H1             18.3582112922       17.4615836235       21.2862758414  W2        8820            0.0000000000
     26460      8820  TIP3      H2             19.3946112922       17.8035636235       22.3354758414  W2        8820            0.0000000000
     26461      8821  TIP3      OH2            17.2960712922       13.9869836235       26.2955658414  W2        8821            0.0000000000
     26462      8821  TIP3      H1             16.4301812922       13.8819536235       26.6897958414  W2        8821            0.0000000000
     26463      8821  TIP3      H2             17.6726612922       14.7453136235       26.7420358414  W2        8821            0.0000000000
     26464      8822  TIP3      OH2            18.5970412922       12.2433536235       11.8098158414  W2        8822            0.0000000000
     26465      8822  TIP3      H1             19.4471812922       12.6644436235       11.9369758414  W2        8822            0.0000000000
     26466      8822  TIP3      H2             18.6025512922       11.5033636235       12.4169558414  W2        8822            0.0000000000
     26467      8823  TIP3      OH2            18.9916012922       10.2970936235       13.6333858414  W2        8823            0.0000000000
     26468      8823  TIP3      H1             18.2650612922        9.8173536235       14.0311458414  W2        8823            0.0000000000
     26469      8823  TIP3      H2             19.5729312922       10.5025636235       14.3655458414  W2        8823            0.0000000000
     26470      8824  TIP3      OH2            18.7507212922       13.0818436235       18.5811458414  W2        8824            0.0000000000
     26471      8824  TIP3      H1             19.5841412922       12.7038436235       18.3005058414  W2        8824            0.0000000000
     26472      8824  TIP3      H2             18.8627512922       14.0249636235       18.4620558414  W2        8824            0.0000000000
     26473      8825  TIP3      OH2            17.2369512922       15.9595936235       20.8879858414  W2        8825            0.0000000000
     26474      8825  TIP3      H1             16.5894812922       16.2847436235       21.5135058414  W2        8825            0.0000000000
     26475      8825  TIP3      H2             16.7193512922       15.5193636235       20.2138158414  W2        8825            0.0000000000
     26476      8826  TIP3      OH2            19.2599112922       10.1979436235       10.0245158414  W2        8826            0.0000000000
     26477      8826  TIP3      H1             18.7380212922       10.5543536235        9.3056058414  W2        8826            0.0000000000
     26478      8826  TIP3      H2             19.2268312922       10.8727236235       10.7026058414  W2        8826            0.0000000000
     26479      8827  TIP3      OH2            17.6088112922        7.4375036235        8.5752258414  W2        8827            0.0000000000
     26480      8827  TIP3      H1             17.7052512922        8.1042036235        7.8951958414  W2        8827            0.0000000000
     26481      8827  TIP3      H2             17.4687712922        6.6221336235        8.0937758414  W2        8827            0.0000000000
     26482      8828  TIP3      OH2            16.7782812922        8.8177436235       14.1962558414  W2        8828            0.0000000000
     26483      8828  TIP3      H1             16.6281612922        7.8726036235       14.1760358414  W2        8828            0.0000000000
     26484      8828  TIP3      H2             16.4247312922        9.0988836235       15.0401658414  W2        8828            0.0000000000
     26485      8829  TIP3      OH2             1.8135212922       10.8959636235       18.2066358414  W2        8829            0.0000000000
     26486      8829  TIP3      H1              1.9978112922       10.8141336235       17.2709258414  W2        8829            0.0000000000
     26487      8829  TIP3      H2              2.6628112922       10.7716636235       18.6302758414  W2        8829            0.0000000000
     26488      8830  TIP3      OH2            17.6345712922       10.7880736235       23.8350858414  W2        8830            0.0000000000
     26489      8830  TIP3      H1             18.2173012922       10.0533036235       24.0268058414  W2        8830            0.0000000000
     26490      8830  TIP3      H2             18.1985012922       11.5601036235       23.8816658414  W2        8830            0.0000000000
     26491      8831  TIP3      OH2            19.1312812922        8.6906536235       24.5196258414  W2        8831            0.0000000000
     26492      8831  TIP3      H1             18.2679512922        8.3118636235       24.3540958414  W2        8831            0.0000000000
     26493      8831  TIP3      H2             19.7356512922        7.9521336235       24.4452058414  W2        8831            0.0000000000
     26494      8832  TIP3      OH2            16.8561912922        4.8454836235        7.6927758414  W2        8832            0.0000000000
     26495      8832  TIP3      H1             17.4667712922        4.4741636235        8.3295958414  W2        8832            0.0000000000
     26496      8832  TIP3      H2             16.0193412922        4.4241736235        7.8887758414  W2        8832            0.0000000000
     26497      8833  TIP3      OH2            16.4887612922        6.4003236235       12.6587658414  W2        8833            0.0000000000
     26498      8833  TIP3      H1             16.7684712922        5.4933636235       12.7829358414  W2        8833            0.0000000000
     26499      8833  TIP3      H2             17.2479312922        6.8344736235       12.2696858414  W2        8833            0.0000000000
     26500      8834  TIP3      OH2            17.1005912922        6.9820636235       18.0946558414  W2        8834            0.0000000000
     26501      8834  TIP3      H1             18.0333912922        7.1940536235       18.0602558414  W2        8834            0.0000000000
     26502      8834  TIP3      H2             16.8653412922        7.0832736235       19.0169558414  W2        8834            0.0000000000
     26503      8835  TIP3      OH2            17.1297812922        7.7185936235       20.8705958414  W2        8835            0.0000000000
     26504      8835  TIP3      H1             16.2869112922        7.9866336235       21.2365758414  W2        8835            0.0000000000
     26505      8835  TIP3      H2             17.5722112922        8.5407836235       20.6597058414  W2        8835            0.0000000000
     26506      8836  TIP3      OH2             1.4110012922        6.1664636235       24.3475158414  W2        8836            0.0000000000
     26507      8836  TIP3      H1              2.3304912922        6.0442936235       24.5838258414  W2        8836            0.0000000000
     26508      8836  TIP3      H2              0.9614512922        5.4164336235       24.7368658414  W2        8836            0.0000000000
     26509      8837  TIP3      OH2            19.4129412922        1.6986136235       26.2240958414  W2        8837            0.0000000000
     26510      8837  TIP3      H1             19.7626412922        1.0449636235       25.6185658414  W2        8837            0.0000000000
     26511      8837  TIP3      H2             19.5598912922        2.5360236235       25.7843558414  W2        8837            0.0000000000
     26512      8838  TIP3      OH2            17.1022412922        3.6632536235       12.7069658414  W2        8838            0.0000000000
     26513      8838  TIP3      H1             17.2847412922        3.2144036235       13.5324658414  W2        8838            0.0000000000
     26514      8838  TIP3      H2             16.5025312922        3.0786936235       12.2434258414  W2        8838            0.0000000000
     26515      8839  TIP3      OH2             2.6322512922        4.4786236235       17.2388058414  W2        8839            0.0000000000
     26516      8839  TIP3      H1              3.0774112922        3.6868736235       17.5407758414  W2        8839            0.0000000000
     26517      8839  TIP3      H2              3.0985512922        5.1951436235       17.6693658414  W2        8839            0.0000000000
     26518      8840  TIP3      OH2             0.9362812922        7.4779236235       18.3078258414  W2        8840            0.0000000000
     26519      8840  TIP3      H1              1.4282612922        7.2569736235       17.5170258414  W2        8840            0.0000000000
     26520      8840  TIP3      H2              1.2983712922        8.3182636235       18.5887758414  W2        8840            0.0000000000
     26521      8841  TIP3      OH2            18.9326612922        3.8080736235       24.5732258414  W2        8841            0.0000000000
     26522      8841  TIP3      H1             18.0152312922        4.0787836235       24.5375758414  W2        8841            0.0000000000
     26523      8841  TIP3      H2             19.0556012922        3.2729136235       23.7891958414  W2        8841            0.0000000000
     26524      8842  TIP3      OH2            18.9688612922        3.7310636235        9.2349958414  W2        8842            0.0000000000
     26525      8842  TIP3      H1             19.3811212922        3.0096336235        8.7597958414  W2        8842            0.0000000000
     26526      8842  TIP3      H2             19.6505112922        4.4005236235        9.2934258414  W2        8842            0.0000000000
     26527      8843  TIP3      OH2             1.2499312922        3.7358336235       12.3620658414  W2        8843            0.0000000000
     26528      8843  TIP3      H1              0.3247712922        3.9444936235       12.2326158414  W2        8843            0.0000000000
     26529      8843  TIP3      H2              1.7039212922        4.2199136235       11.6722958414  W2        8843            0.0000000000
     26530      8844  TIP3      OH2            16.0206512922       18.7200036235       14.3078058414  W2        8844            0.0000000000
     26531      8844  TIP3      H1             16.6729412922       18.3722136235       13.6997158414  W2        8844            0.0000000000
     26532      8844  TIP3      H2             16.5310312922       19.2083236235       14.9537758414  W2        8844            0.0000000000
     26533      8845  TIP3      OH2             1.2134712922        2.4737336235       20.7063158414  W2        8845            0.0000000000
     26534      8845  TIP3      H1              0.5485212922        2.2277636235       21.3494058414  W2        8845            0.0000000000
     26535      8845  TIP3      H2              0.7706012922        3.0957736235       20.1291158414  W2        8845            0.0000000000
     26536      8846  TIP3      OH2             3.4054012922       15.6491436235       24.8508958414  W2        8846            0.0000000000
     26537      8846  TIP3      H1              2.5846512922       15.8237936235       24.3903658414  W2        8846            0.0000000000
     26538      8846  TIP3      H2              3.1531812922       15.5756136235       25.7713358414  W2        8846            0.0000000000
     26539      8847  TIP3      OH2             6.3596912922       16.6232636235       21.1092958414  W2        8847            0.0000000000
     26540      8847  TIP3      H1              5.9348012922       17.4331136235       20.8267558414  W2        8847            0.0000000000
     26541      8847  TIP3      H2              7.2639712922       16.7086736235       20.8072758414  W2        8847            0.0000000000
     26542      8848  TIP3      OH2            10.6708312922       18.0222636235       24.0686658414  W2        8848            0.0000000000
     26543      8848  TIP3      H1             10.8555812922       17.6888736235       24.9466958414  W2        8848            0.0000000000
     26544      8848  TIP3      H2             11.5172812922       18.3321236235       23.7465858414  W2        8848            0.0000000000
     26545      8849  TIP3      OH2            13.0158712922       19.3081536235       23.3128058414  W2        8849            0.0000000000
     26546      8849  TIP3      H1             13.6927612922       18.6753836235       23.0727258414  W2        8849            0.0000000000
     26547      8849  TIP3      H2             13.3377512922       19.7092036235       24.1201358414  W2        8849            0.0000000000
     26548      8850  TIP3      OH2            17.9332512922        1.8977036235       22.3923058414  W2        8850            0.0000000000
     26549      8850  TIP3      H1             17.1206012922        2.2227336235       22.0047758414  W2        8850            0.0000000000
     26550      8850  TIP3      H2             18.1661012922        1.1375536235       21.8592158414  W2        8850            0.0000000000
     26551      8851  TIP3      OH2             3.7613612922       19.8796536235       21.1568258414  W2        8851            0.0000000000
     26552      8851  TIP3      H1              3.0410012922       20.3197536235       20.7055958414  W2        8851            0.0000000000
     26553      8851  TIP3      H2              3.3957612922       19.6291236235       22.0052258414  W2        8851            0.0000000000
     26554      8852  TIP3      OH2             6.2286212922       19.4800436235       20.1865458414  W2        8852            0.0000000000
     26555      8852  TIP3      H1              5.3638412922       19.5518936235       20.5905558414  W2        8852            0.0000000000
     26556      8852  TIP3      H2              6.1735212922       20.0267736235       19.4027958414  W2        8852            0.0000000000
     26557      8853  TIP3      OH2            10.9391812922       19.3679336235       19.3621458414  W2        8853            0.0000000000
     26558      8853  TIP3      H1             10.4825812922       19.8969036235       18.7079858414  W2        8853            0.0000000000
     26559      8853  TIP3      H2             11.1019812922       19.9710736235       20.0873758414  W2        8853            0.0000000000
     26560      8854  TIP3      OH2            13.2668112922       18.2458936235       20.3071758414  W2        8854            0.0000000000
     26561      8854  TIP3      H1             12.3621812922       18.4109136235       20.0413858414  W2        8854            0.0000000000
     26562      8854  TIP3      H2             13.6956712922       19.0991136235       20.2415158414  W2        8854            0.0000000000
     26563      8855  TIP3      OH2            15.8710012922       19.8158036235       20.6019558414  W2        8855            0.0000000000
     26564      8855  TIP3      H1             15.6892012922       20.7316936235       20.3914458414  W2        8855            0.0000000000
     26565      8855  TIP3      H2             16.0477812922       19.4055136235       19.7554158414  W2        8855            0.0000000000
     26566      8856  TIP3      OH2             3.1761712922       18.5029036235       18.0670058414  W2        8856            0.0000000000
     26567      8856  TIP3      H1              3.1577712922       18.0774136235       18.9242358414  W2        8856            0.0000000000
     26568      8856  TIP3      H2              3.9809612922       18.1844036235       17.6582258414  W2        8856            0.0000000000
     26569      8857  TIP3      OH2             5.3174812922       17.2127736235       16.7219958414  W2        8857            0.0000000000
     26570      8857  TIP3      H1              5.0985512922       16.2965136235       16.8915958414  W2        8857            0.0000000000
     26571      8857  TIP3      H2              6.1417012922       17.3528136235       17.1881358414  W2        8857            0.0000000000
     26572      8858  TIP3      OH2             7.8547312922       17.6827036235       17.5707958414  W2        8858            0.0000000000
     26573      8858  TIP3      H1              8.0673012922       16.7946036235       17.2838858414  W2        8858            0.0000000000
     26574      8858  TIP3      H2              7.9192412922       17.6484736235       18.5251958414  W2        8858            0.0000000000
     26575      8859  TIP3      OH2            11.3631012922        3.3467636235       16.7151258414  W2        8859            0.0000000000
     26576      8859  TIP3      H1             10.6887812922        2.7173236235       16.9707058414  W2        8859            0.0000000000
     26577      8859  TIP3      H2             11.9270212922        2.8626536235       16.1119158414  W2        8859            0.0000000000
     26578      8860  TIP3      OH2            16.5058212922        1.4541636235       16.8278358414  W2        8860            0.0000000000
     26579      8860  TIP3      H1             17.1095812922        2.0017036235       16.3259358414  W2        8860            0.0000000000
     26580      8860  TIP3      H2             15.6360212922        1.7732036235       16.5872458414  W2        8860            0.0000000000
     26581      8861  TIP3      OH2            18.2328612922        2.5930336235       15.1609258414  W2        8861            0.0000000000
     26582      8861  TIP3      H1             18.8446112922        2.0786036235       14.6342858414  W2        8861            0.0000000000
     26583      8861  TIP3      H2             18.6152012922        3.4702436235       15.1843658414  W2        8861            0.0000000000
     26584      8862  TIP3      OH2             3.6898512922        1.9807936235       14.5371158414  W2        8862            0.0000000000
     26585      8862  TIP3      H1              2.9128312922        1.7462836235       14.0297058414  W2        8862            0.0000000000
     26586      8862  TIP3      H2              4.2202112922        1.1840036235       14.5459158414  W2        8862            0.0000000000
     26587      8863  TIP3      OH2             2.5261912922        1.7786036235       10.3407258414  W2        8863            0.0000000000
     26588      8863  TIP3      H1              2.9652612922        2.3896536235        9.7490758414  W2        8863            0.0000000000
     26589      8863  TIP3      H2              1.8924312922        2.3170136235       10.8147258414  W2        8863            0.0000000000
     26590      8864  TIP3      OH2             8.2691112922        1.9075036235       14.3504258414  W2        8864            0.0000000000
     26591      8864  TIP3      H1              9.1434512922        2.2959336235       14.3208558414  W2        8864            0.0000000000
     26592      8864  TIP3      H2              8.1331912922        1.6922836235       15.2731458414  W2        8864            0.0000000000
     26593      8865  TIP3      OH2            13.8259512922        1.9374836235       15.9995958414  W2        8865            0.0000000000
     26594      8865  TIP3      H1             13.9021112922        2.0326436235       15.0501958414  W2        8865            0.0000000000
     26595      8865  TIP3      H2             13.5508712922        1.0297736235       16.1285058414  W2        8865            0.0000000000
     26596      8866  TIP3      OH2            15.1792112922        1.9632636235       11.6920958414  W2        8866            0.0000000000
     26597      8866  TIP3      H1             14.4763212922        2.5781836235       11.4822358414  W2        8866            0.0000000000
     26598      8866  TIP3      H2             14.7343512922        1.1259336235       11.8231858414  W2        8866            0.0000000000
     26599      8867  TIP3      OH2             2.4271412922       17.7268236235       11.2382358414  W2        8867            0.0000000000
     26600      8867  TIP3      H1              1.7421312922       17.6887136235       10.5707458414  W2        8867            0.0000000000
     26601      8867  TIP3      H2              2.4308612922       18.6395836235       11.5264458414  W2        8867            0.0000000000
     26602      8868  TIP3      OH2             4.3871012922        3.6947536235        8.7831358414  W2        8868            0.0000000000
     26603      8868  TIP3      H1              4.8784412922        3.0649936235        8.2556858414  W2        8868            0.0000000000
     26604      8868  TIP3      H2              5.0107312922        3.9906936235        9.4462558414  W2        8868            0.0000000000
     26605      8869  TIP3      OH2             9.4131112922        3.9879036235       11.2401858414  W2        8869            0.0000000000
     26606      8869  TIP3      H1              9.5912412922        3.3412236235       11.9230458414  W2        8869            0.0000000000
     26607      8869  TIP3      H2              9.3597312922        4.8216736235       11.7072958414  W2        8869            0.0000000000
     26608      8870  TIP3      OH2            11.2914912922       18.9363136235        9.6358558414  W2        8870            0.0000000000
     26609      8870  TIP3      H1             12.1575112922       19.3030536235        9.4576758414  W2        8870            0.0000000000
     26610      8870  TIP3      H2             11.0447712922       18.4971136235        8.8219358414  W2        8870            0.0000000000
     26611      8871  TIP3      OH2            18.0004512922       18.4993436235       12.3149658414  W2        8871            0.0000000000
     26612      8871  TIP3      H1             17.8061612922       17.7515536235       11.7499258414  W2        8871            0.0000000000
     26613      8871  TIP3      H2             17.9614612922       19.2573536235       11.7317558414  W2        8871            0.0000000000
     26614      8872  TIP3      OH2             3.6476512922        2.4949836235       24.0547358414  W2        8872            0.0000000000
     26615      8872  TIP3      H1              3.2814712922        1.7292436235       24.4972058414  W2        8872            0.0000000000
     26616      8872  TIP3      H2              4.5605012922        2.5240036235       24.3412458414  W2        8872            0.0000000000
     26617      8873  TIP3      OH2             5.6207312922        1.8454236235       25.5904458414  W2        8873            0.0000000000
     26618      8873  TIP3      H1              6.5190912922        1.5714436235       25.4057858414  W2        8873            0.0000000000
     26619      8873  TIP3      H2              5.2340412922        1.1030236235       26.0547058414  W2        8873            0.0000000000
     26620      8874  TIP3      OH2             4.2452612922       18.6469036235        8.2634458414  W2        8874            0.0000000000
     26621      8874  TIP3      H1              3.9777212922       18.9331936235        9.1367558414  W2        8874            0.0000000000
     26622      8874  TIP3      H2              5.0165212922       18.1008236235        8.4156958414  W2        8874            0.0000000000
     26623      8875  TIP3      OH2            14.0419612922        1.1779536235       25.7727258414  W2        8875            0.0000000000
     26624      8875  TIP3      H1             14.1186812922        0.7520236235       26.6264958414  W2        8875            0.0000000000
     26625      8875  TIP3      H2             14.9356212922        1.1914236235       25.4300758414  W2        8875            0.0000000000
     26626      8876  TIP3      OH2            17.2180712922       17.2505836235       24.4651458414  W2        8876            0.0000000000
     26627      8876  TIP3      H1             16.4362612922       17.0643836235       23.9452058414  W2        8876            0.0000000000
     26628      8876  TIP3      H2             17.1460612922       18.1800136235       24.6823958414  W2        8876            0.0000000000
     26629      8877  TIP3      OH2            31.6241112922       11.1370236235       14.4958658414  W2        8877            0.0000000000
     26630      8877  TIP3      H1             31.7132212922       12.0808436235       14.3635758414  W2        8877            0.0000000000
     26631      8877  TIP3      H2             30.9858712922       10.8616636235       13.8378058414  W2        8877            0.0000000000
     26632      8878  TIP3      OH2            30.5572412922       10.3920936235       17.9146858414  W2        8878            0.0000000000
     26633      8878  TIP3      H1             30.5189912922        9.7457236235       18.6196458414  W2        8878            0.0000000000
     26634      8878  TIP3      H2             30.2348912922        9.9255336235       17.1435558414  W2        8878            0.0000000000
     26635      8879  TIP3      OH2            22.9257412922       10.0063036235       19.5076758414  W2        8879            0.0000000000
     26636      8879  TIP3      H1             22.9669512922        9.3806336235       20.2309158414  W2        8879            0.0000000000
     26637      8879  TIP3      H2             23.6285112922       10.6301636235       19.6897158414  W2        8879            0.0000000000
     26638      8880  TIP3      OH2            34.2632612922       13.3311336235       16.2161958414  W2        8880            0.0000000000
     26639      8880  TIP3      H1             33.8225312922       12.6107336235       16.6667558414  W2        8880            0.0000000000
     26640      8880  TIP3      H2             34.2502312922       14.0518536235       16.8459658414  W2        8880            0.0000000000
     26641      8881  TIP3      OH2            23.8490512922       14.4561936235       18.0425858414  W2        8881            0.0000000000
     26642      8881  TIP3      H1             23.4795712922       13.6542436235       17.6730158414  W2        8881            0.0000000000
     26643      8881  TIP3      H2             24.7901612922       14.2876836235       18.0889258414  W2        8881            0.0000000000
     26644      8882  TIP3      OH2            20.4591012922        8.1164536235       13.4354658414  W2        8882            0.0000000000
     26645      8882  TIP3      H1             20.0114412922        8.9623236235       13.4171158414  W2        8882            0.0000000000
     26646      8882  TIP3      H2             19.8982212922        7.5368736235       12.9199758414  W2        8882            0.0000000000
     26647      8883  TIP3      OH2            21.1697112922       10.2784136235       15.5612658414  W2        8883            0.0000000000
     26648      8883  TIP3      H1             21.3830612922        9.5085736235       16.0885658414  W2        8883            0.0000000000
     26649      8883  TIP3      H2             21.9074712922       10.3680836235       14.9580258414  W2        8883            0.0000000000
     26650      8884  TIP3      OH2            31.3748112922       18.4353036235       16.4282358414  W2        8884            0.0000000000
     26651      8884  TIP3      H1             31.9944512922       17.7587736235       16.1551558414  W2        8884            0.0000000000
     26652      8884  TIP3      H2             31.1665512922       18.2173836235       17.3367258414  W2        8884            0.0000000000
     26653      8885  TIP3      OH2            28.9466812922       12.8242336235       18.3207858414  W2        8885            0.0000000000
     26654      8885  TIP3      H1             29.2504712922       12.1383736235       17.7261958414  W2        8885            0.0000000000
     26655      8885  TIP3      H2             29.6680812922       12.9431036235       18.9385858414  W2        8885            0.0000000000
     26656      8886  TIP3      OH2            32.0873812922        7.2184736235       18.6482658414  W2        8886            0.0000000000
     26657      8886  TIP3      H1             32.2299712922        6.2721736235       18.6684258414  W2        8886            0.0000000000
     26658      8886  TIP3      H2             31.9812812922        7.4254536235       17.7197558414  W2        8886            0.0000000000
     26659      8887  TIP3      OH2            25.2422112922        5.3201136235       15.9207458414  W2        8887            0.0000000000
     26660      8887  TIP3      H1             25.2853212922        6.1799636235       15.5023758414  W2        8887            0.0000000000
     26661      8887  TIP3      H2             24.7846212922        4.7675836235       15.2870658414  W2        8887            0.0000000000
     26662      8888  TIP3      OH2            32.9644812922        5.4506736235       14.3215758414  W2        8888            0.0000000000
     26663      8888  TIP3      H1             33.6109112922        5.1219936235       14.9463358414  W2        8888            0.0000000000
     26664      8888  TIP3      H2             33.4744212922        5.9685736235       13.6987158414  W2        8888            0.0000000000
     26665      8889  TIP3      OH2            21.8623612922        7.7166936235       16.6828858414  W2        8889            0.0000000000
     26666      8889  TIP3      H1             22.5160212922        7.1668636235       17.1148958414  W2        8889            0.0000000000
     26667      8889  TIP3      H2             21.8862912922        7.4425936235       15.7660858414  W2        8889            0.0000000000
     26668      8890  TIP3      OH2            27.0188112922        9.2668236235       15.8980358414  W2        8890            0.0000000000
     26669      8890  TIP3      H1             27.6349112922        8.7403636235       16.4074358414  W2        8890            0.0000000000
     26670      8890  TIP3      H2             26.4326912922        8.6266936235       15.4943958414  W2        8890            0.0000000000
     26671      8891  TIP3      OH2            24.0524012922        4.2379536235       19.9948258414  W2        8891            0.0000000000
     26672      8891  TIP3      H1             23.8335712922        4.7680136235       19.2284258414  W2        8891            0.0000000000
     26673      8891  TIP3      H2             23.3844912922        4.4645036235       20.6419658414  W2        8891            0.0000000000
     26674      8892  TIP3      OH2            31.4213812922       13.7380636235       13.5387358414  W2        8892            0.0000000000
     26675      8892  TIP3      H1             31.1258912922       13.4152936235       12.6874258414  W2        8892            0.0000000000
     26676      8892  TIP3      H2             31.0971612922       14.6377336235       13.5799958414  W2        8892            0.0000000000
     26677      8893  TIP3      OH2            26.6215412922       11.9135236235       20.2821958414  W2        8893            0.0000000000
     26678      8893  TIP3      H1             25.8814512922       12.5116736235       20.3857158414  W2        8893            0.0000000000
     26679      8893  TIP3      H2             27.3354912922       12.4674836235       19.9665558414  W2        8893            0.0000000000
     26680      8894  TIP3      OH2            34.7283212922        4.7416036235       16.3021658414  W2        8894            0.0000000000
     26681      8894  TIP3      H1             34.5131212922        3.9759436235       16.8347658414  W2        8894            0.0000000000
     26682      8894  TIP3      H2             35.3840612922        5.2140636235       16.8150158414  W2        8894            0.0000000000
     26683      8895  TIP3      OH2            23.6461312922        6.1301336235       17.9470458414  W2        8895            0.0000000000
     26684      8895  TIP3      H1             24.2597612922        6.7628936235       18.3202858414  W2        8895            0.0000000000
     26685      8895  TIP3      H2             24.1582012922        5.6576336235       17.2907358414  W2        8895            0.0000000000
     26686      8896  TIP3      OH2            25.0289712922       13.8778236235       21.0693458414  W2        8896            0.0000000000
     26687      8896  TIP3      H1             25.0237312922       14.7571736235       20.6912758414  W2        8896            0.0000000000
     26688      8896  TIP3      H2             24.1753812922       13.7942336235       21.4943358414  W2        8896            0.0000000000
     26689      8897  TIP3      OH2            21.1500612922       13.5486136235       11.8512758414  W2        8897            0.0000000000
     26690      8897  TIP3      H1             20.8781512922       13.7777136235       10.9625658414  W2        8897            0.0000000000
     26691      8897  TIP3      H2             21.1956312922       14.3864936235       12.3118058414  W2        8897            0.0000000000
     26692      8898  TIP3      OH2            34.7750312922       15.1702036235       18.5641258414  W2        8898            0.0000000000
     26693      8898  TIP3      H1             33.8334012922       15.2285936235       18.7258158414  W2        8898            0.0000000000
     26694      8898  TIP3      H2             35.0516412922       16.0762536235       18.4270958414  W2        8898            0.0000000000
     26695      8899  TIP3      OH2            35.0757312922        3.4567336235       19.9815158414  W2        8899            0.0000000000
     26696      8899  TIP3      H1             34.3396512922        4.0674436235       19.9436458414  W2        8899            0.0000000000
     26697      8899  TIP3      H2             35.7591312922        3.8716336235       19.4551558414  W2        8899            0.0000000000
     26698      8900  TIP3      OH2            28.0788712922        1.5434636235       17.4473158414  W2        8900            0.0000000000
     26699      8900  TIP3      H1             27.9612912922        0.5950636235       17.3931458414  W2        8900            0.0000000000
     26700      8900  TIP3      H2             27.2238812922        1.8760736235       17.7204258414  W2        8900            0.0000000000
     26701      8901  TIP3      OH2            33.0271512922       16.9515536235       15.1892858414  W2        8901            0.0000000000
     26702      8901  TIP3      H1             33.4523812922       16.2443436235       14.7042458414  W2        8901            0.0000000000
     26703      8901  TIP3      H2             33.3441512922       17.7528236235       14.7725058414  W2        8901            0.0000000000
     26704      8902  TIP3      OH2            34.1868012922       14.8524036235       13.6979458414  W2        8902            0.0000000000
     26705      8902  TIP3      H1             33.9292812922       14.1624136235       13.0865358414  W2        8902            0.0000000000
     26706      8902  TIP3      H2             34.2578812922       14.4095236235       14.5435358414  W2        8902            0.0000000000
     26707      8903  TIP3      OH2            35.8728212922       13.4190736235       22.1752958414  W2        8903            0.0000000000
     26708      8903  TIP3      H1             36.0124512922       12.8273236235       21.4359958414  W2        8903            0.0000000000
     26709      8903  TIP3      H2             36.0401012922       14.2916636235       21.8191758414  W2        8903            0.0000000000
     26710      8904  TIP3      OH2            30.3453612922       10.3810236235       11.9478958414  W2        8904            0.0000000000
     26711      8904  TIP3      H1             29.6339112922       10.9159936235       11.5959458414  W2        8904            0.0000000000
     26712      8904  TIP3      H2             31.0363212922       10.4362336235       11.2877858414  W2        8904            0.0000000000
     26713      8905  TIP3      OH2            30.3992812922        8.8384536235        8.9863958414  W2        8905            0.0000000000
     26714      8905  TIP3      H1             31.1002712922        8.8611436235        9.6377958414  W2        8905            0.0000000000
     26715      8905  TIP3      H2             30.7015712922        8.2104236235        8.3303258414  W2        8905            0.0000000000
     26716      8906  TIP3      OH2            33.7511312922       10.5903536235       12.8994858414  W2        8906            0.0000000000
     26717      8906  TIP3      H1             33.0192312922       10.8187236235       13.4725458414  W2        8906            0.0000000000
     26718      8906  TIP3      H2             34.1983512922        9.8766236235       13.3542358414  W2        8906            0.0000000000
     26719      8907  TIP3      OH2            33.6484812922        8.7646136235       21.9671858414  W2        8907            0.0000000000
     26720      8907  TIP3      H1             33.7283912922        9.5280536235       22.5390358414  W2        8907            0.0000000000
     26721      8907  TIP3      H2             33.0472512922        9.0438536235       21.2766958414  W2        8907            0.0000000000
     26722      8908  TIP3      OH2            25.3965012922       11.2209736235       14.7819858414  W2        8908            0.0000000000
     26723      8908  TIP3      H1             25.0660212922       10.8503136235       13.9636858414  W2        8908            0.0000000000
     26724      8908  TIP3      H2             25.9849112922       10.5503736235       15.1288158414  W2        8908            0.0000000000
     26725      8909  TIP3      OH2            26.7632512922       14.6490336235       17.4632058414  W2        8909            0.0000000000
     26726      8909  TIP3      H1             26.6683812922       14.0703436235       16.7066658414  W2        8909            0.0000000000
     26727      8909  TIP3      H2             27.4926112922       14.2776036235       17.9594858414  W2        8909            0.0000000000
     26728      8910  TIP3      OH2            25.7630512922        9.9895336235       18.4154858414  W2        8910            0.0000000000
     26729      8910  TIP3      H1             26.3283012922       10.1109536235       17.6526058414  W2        8910            0.0000000000
     26730      8910  TIP3      H2             26.0819412922       10.6270336235       19.0543358414  W2        8910            0.0000000000
     26731      8911  TIP3      OH2            32.0722712922       15.4927236235       19.1495358414  W2        8911            0.0000000000
     26732      8911  TIP3      H1             31.8319312922       16.1550336235       19.7974558414  W2        8911            0.0000000000
     26733      8911  TIP3      H2             31.8740912922       14.6582436235       19.5744958414  W2        8911            0.0000000000
     26734      8912  TIP3      OH2            26.6431212922       14.3888036235       23.1326758414  W2        8912            0.0000000000
     26735      8912  TIP3      H1             26.3318712922       15.1711236235       23.5879958414  W2        8912            0.0000000000
     26736      8912  TIP3      H2             25.9931412922       14.2357136235       22.4468758414  W2        8912            0.0000000000
     26737      8913  TIP3      OH2            32.6220812922        9.7526436235       10.5846058414  W2        8913            0.0000000000
     26738      8913  TIP3      H1             33.2016312922        9.9026736235       11.3314958414  W2        8913            0.0000000000
     26739      8913  TIP3      H2             33.0360812922       10.2233836235        9.8612458414  W2        8913            0.0000000000
     26740      8914  TIP3      OH2            23.5631112922       10.5869136235       22.3612458414  W2        8914            0.0000000000
     26741      8914  TIP3      H1             23.6334312922       11.2375936235       23.0597458414  W2        8914            0.0000000000
     26742      8914  TIP3      H2             22.6723312922       10.6896636235       22.0263358414  W2        8914            0.0000000000
     26743      8915  TIP3      OH2            30.3485712922       16.4894936235       14.0199158414  W2        8915            0.0000000000
     26744      8915  TIP3      H1             30.8223312922       16.7851236235       14.7973358414  W2        8915            0.0000000000
     26745      8915  TIP3      H2             29.7855012922       17.2276536235       13.7868758414  W2        8915            0.0000000000
     26746      8916  TIP3      OH2            24.8827112922       16.4603036235       23.8960558414  W2        8916            0.0000000000
     26747      8916  TIP3      H1             24.8902412922       16.3242736235       22.9486058414  W2        8916            0.0000000000
     26748      8916  TIP3      H2             23.9667512922       16.3431136235       24.1480558414  W2        8916            0.0000000000
     26749      8917  TIP3      OH2            36.3209212922        1.5026836235       10.3975758414  W2        8917            0.0000000000
     26750      8917  TIP3      H1             35.4209912922        1.6415836235       10.6926358414  W2        8917            0.0000000000
     26751      8917  TIP3      H2             36.5727612922        2.3341436235        9.9957458414  W2        8917            0.0000000000
     26752      8918  TIP3      OH2            24.3867712922       10.2904036235       12.3712658414  W2        8918            0.0000000000
     26753      8918  TIP3      H1             24.0949012922       11.0585736235       11.8803958414  W2        8918            0.0000000000
     26754      8918  TIP3      H2             23.7122912922        9.6310236235       12.2084058414  W2        8918            0.0000000000
     26755      8919  TIP3      OH2            20.4797812922       12.6533236235       21.1862458414  W2        8919            0.0000000000
     26756      8919  TIP3      H1             19.9786212922       12.6252636235       20.3712158414  W2        8919            0.0000000000
     26757      8919  TIP3      H2             20.4851512922       11.7476436235       21.4959758414  W2        8919            0.0000000000
     26758      8920  TIP3      OH2            20.2300512922       15.4337036235       18.0702658414  W2        8920            0.0000000000
     26759      8920  TIP3      H1             21.1761112922       15.2894036235       18.0512158414  W2        8920            0.0000000000
     26760      8920  TIP3      H2             20.1176812922       16.2179836235       18.6073858414  W2        8920            0.0000000000
     26761      8921  TIP3      OH2            29.4063012922       15.6735936235       22.6287758414  W2        8921            0.0000000000
     26762      8921  TIP3      H1             29.4937612922       16.5000536235       23.1036858414  W2        8921            0.0000000000
     26763      8921  TIP3      H2             28.5428112922       15.3439736235       22.8777058414  W2        8921            0.0000000000
     26764      8922  TIP3      OH2            29.8208812922       19.4459636235       12.4348358414  W2        8922            0.0000000000
     26765      8922  TIP3      H1             29.7454812922       19.3246836235       11.4883558414  W2        8922            0.0000000000
     26766      8922  TIP3      H2             29.8537512922       20.3952336235       12.5532958414  W2        8922            0.0000000000
     26767      8923  TIP3      OH2            23.4742612922       18.2346636235       14.2157358414  W2        8923            0.0000000000
     26768      8923  TIP3      H1             23.6263012922       17.8867036235       15.0943858414  W2        8923            0.0000000000
     26769      8923  TIP3      H2             22.6233012922       17.8783936235       13.9604558414  W2        8923            0.0000000000
     26770      8924  TIP3      OH2            32.9224812922       18.5999836235        9.4370758414  W2        8924            0.0000000000
     26771      8924  TIP3      H1             33.2973212922       17.8555936235        8.9663358414  W2        8924            0.0000000000
     26772      8924  TIP3      H2             32.9268512922       18.3300436235       10.3554058414  W2        8924            0.0000000000
     26773      8925  TIP3      OH2            32.5912912922       18.5256936235       12.1862958414  W2        8925            0.0000000000
     26774      8925  TIP3      H1             31.6562712922       18.6258836235       12.3649958414  W2        8925            0.0000000000
     26775      8925  TIP3      H2             32.8714812922       17.8162936235       12.7646158414  W2        8925            0.0000000000
     26776      8926  TIP3      OH2            35.5798812922        7.5929236235       24.2328558414  W2        8926            0.0000000000
     26777      8926  TIP3      H1             35.1725612922        8.0734836235       23.5121858414  W2        8926            0.0000000000
     26778      8926  TIP3      H2             35.6204512922        6.6875236235       23.9249358414  W2        8926            0.0000000000
     26779      8927  TIP3      OH2            22.7288312922       13.9768636235       22.2295258414  W2        8927            0.0000000000
     26780      8927  TIP3      H1             22.9449612922       13.6154236235       23.0891058414  W2        8927            0.0000000000
     26781      8927  TIP3      H2             21.8733012922       13.6022436235       22.0198758414  W2        8927            0.0000000000
     26782      8928  TIP3      OH2            25.3476312922        2.4469136235       18.2249458414  W2        8928            0.0000000000
     26783      8928  TIP3      H1             24.4860012922        2.3597336235       17.8172358414  W2        8928            0.0000000000
     26784      8928  TIP3      H2             25.3252012922        3.3029236235       18.6527058414  W2        8928            0.0000000000
     26785      8929  TIP3      OH2            30.0104112922        2.1689536235       21.5996458414  W2        8929            0.0000000000
     26786      8929  TIP3      H1             30.4307212922        1.7536636235       22.3527058414  W2        8929            0.0000000000
     26787      8929  TIP3      H2             29.0773712922        1.9902836235       21.7168458414  W2        8929            0.0000000000
     26788      8930  TIP3      OH2            33.3369012922        5.9244736235       22.4530958414  W2        8930            0.0000000000
     26789      8930  TIP3      H1             32.8228512922        5.7986936235       23.2506958414  W2        8930            0.0000000000
     26790      8930  TIP3      H2             33.1813712922        6.8367836235       22.2087158414  W2        8930            0.0000000000
     26791      8931  TIP3      OH2            34.0993912922       10.7854736235        8.2143958414  W2        8931            0.0000000000
     26792      8931  TIP3      H1             34.1414712922       10.5628636235        7.2843958414  W2        8931            0.0000000000
     26793      8931  TIP3      H2             34.9486012922       11.1841836235        8.4043858414  W2        8931            0.0000000000
     26794      8932  TIP3      OH2            29.6721412922        4.6612936235        8.8847258414  W2        8932            0.0000000000
     26795      8932  TIP3      H1             29.4186212922        4.6804536235        9.8075358414  W2        8932            0.0000000000
     26796      8932  TIP3      H2             29.4153512922        3.7898336235        8.5833458414  W2        8932            0.0000000000
     26797      8933  TIP3      OH2            25.4386412922        7.4123636235       19.3199658414  W2        8933            0.0000000000
     26798      8933  TIP3      H1             24.7968512922        7.3720936235       20.0289758414  W2        8933            0.0000000000
     26799      8933  TIP3      H2             25.4758412922        8.3388336235       19.0822658414  W2        8933            0.0000000000
     26800      8934  TIP3      OH2            25.4355512922        7.6333736235       14.2319658414  W2        8934            0.0000000000
     26801      8934  TIP3      H1             24.5428412922        7.2929836235       14.1733458414  W2        8934            0.0000000000
     26802      8934  TIP3      H2             25.8862112922        7.2564636235       13.4762858414  W2        8934            0.0000000000
     26803      8935  TIP3      OH2            30.9711012922        8.0494036235       13.0490458414  W2        8935            0.0000000000
     26804      8935  TIP3      H1             30.5621312922        8.8642636235       12.7575258414  W2        8935            0.0000000000
     26805      8935  TIP3      H2             31.6917212922        7.9094136235       12.4347558414  W2        8935            0.0000000000
     26806      8936  TIP3      OH2            30.0732612922        8.2250436235       24.5371158414  W2        8936            0.0000000000
     26807      8936  TIP3      H1             29.5106412922        7.5202036235       24.8578958414  W2        8936            0.0000000000
     26808      8936  TIP3      H2             30.8996012922        8.1042336235       25.0048758414  W2        8936            0.0000000000
     26809      8937  TIP3      OH2            31.9758712922        7.4954436235       15.8630158414  W2        8937            0.0000000000
     26810      8937  TIP3      H1             31.7803212922        8.1011236235       15.1480758414  W2        8937            0.0000000000
     26811      8937  TIP3      H2             32.1571312922        6.6619636235       15.4286458414  W2        8937            0.0000000000
     26812      8938  TIP3      OH2            23.1886912922        7.7327136235       21.1871658414  W2        8938            0.0000000000
     26813      8938  TIP3      H1             23.1506312922        8.1328736235       22.0558758414  W2        8938            0.0000000000
     26814      8938  TIP3      H2             22.6978012922        6.9159536235       21.2774558414  W2        8938            0.0000000000
     26815      8939  TIP3      OH2            26.5544312922        5.1069436235        7.9857658414  W2        8939            0.0000000000
     26816      8939  TIP3      H1             26.1235012922        4.6619536235        8.7155058414  W2        8939            0.0000000000
     26817      8939  TIP3      H2             25.8363012922        5.4785736235        7.4735158414  W2        8939            0.0000000000
     26818      8940  TIP3      OH2            19.7967712922        4.8488936235       15.0376358414  W2        8940            0.0000000000
     26819      8940  TIP3      H1             20.4275412922        4.8201036235       15.7570258414  W2        8940            0.0000000000
     26820      8940  TIP3      H2             20.2462012922        4.4237636235       14.3072258414  W2        8940            0.0000000000
     26821      8941  TIP3      OH2            21.0709812922        5.5950936235       10.4616758414  W2        8941            0.0000000000
     26822      8941  TIP3      H1             21.5451512922        6.1860836235        9.8767658414  W2        8941            0.0000000000
     26823      8941  TIP3      H2             20.3536212922        6.1253836235       10.8086858414  W2        8941            0.0000000000
     26824      8942  TIP3      OH2            31.2397912922        9.1335736235       20.5342558414  W2        8942            0.0000000000
     26825      8942  TIP3      H1             31.5632712922        8.5025436235       19.8913058414  W2        8942            0.0000000000
     26826      8942  TIP3      H2             30.7997212922        8.5987936235       21.1949958414  W2        8942            0.0000000000
     26827      8943  TIP3      OH2            28.0170812922        5.0611236235       15.3183758414  W2        8943            0.0000000000
     26828      8943  TIP3      H1             27.1061912922        5.1178036235       15.6069758414  W2        8943            0.0000000000
     26829      8943  TIP3      H2             28.5223712922        5.0006736235       16.1290958414  W2        8943            0.0000000000
     26830      8944  TIP3      OH2            22.8454212922        6.6897536235       14.1451358414  W2        8944            0.0000000000
     26831      8944  TIP3      H1             21.9562212922        6.7893036235       13.8050958414  W2        8944            0.0000000000
     26832      8944  TIP3      H2             23.1419112922        5.8480536235       13.7989258414  W2        8944            0.0000000000
     26833      8945  TIP3      OH2            26.4986012922        6.6900136235       11.8015958414  W2        8945            0.0000000000
     26834      8945  TIP3      H1             27.4301512922        6.8190136235       11.9799058414  W2        8945            0.0000000000
     26835      8945  TIP3      H2             26.2836312922        7.3594436235       11.1520658414  W2        8945            0.0000000000
     26836      8946  TIP3      OH2            32.4222712922        4.2957536235       18.5825558414  W2        8946            0.0000000000
     26837      8946  TIP3      H1             31.7454312922        4.4270636235       19.2465258414  W2        8946            0.0000000000
     26838      8946  TIP3      H2             31.9367612922        4.1407036235       17.7723258414  W2        8946            0.0000000000
     26839      8947  TIP3      OH2            25.1726212922        7.8842336235        9.3682058414  W2        8947            0.0000000000
     26840      8947  TIP3      H1             24.6301312922        7.5046136235        8.6769658414  W2        8947            0.0000000000
     26841      8947  TIP3      H2             26.0061112922        8.0787036235        8.9396158414  W2        8947            0.0000000000
     26842      8948  TIP3      OH2            35.7097812922       19.9672936235       24.8593158414  W2        8948            0.0000000000
     26843      8948  TIP3      H1             35.9096512922       20.3914836235       24.0248458414  W2        8948            0.0000000000
     26844      8948  TIP3      H2             36.3651512922       20.3111136235       25.4663558414  W2        8948            0.0000000000
     26845      8949  TIP3      OH2            23.3077612922       12.4414236235       24.4673658414  W2        8949            0.0000000000
     26846      8949  TIP3      H1             24.0400012922       12.6960136235       25.0288158414  W2        8949            0.0000000000
     26847      8949  TIP3      H2             22.5276312922       12.6459636235       24.9829058414  W2        8949            0.0000000000
     26848      8950  TIP3      OH2            29.3370512922        7.8484236235       17.2053358414  W2        8950            0.0000000000
     26849      8950  TIP3      H1             29.9013912922        7.3020836235       16.6582958414  W2        8950            0.0000000000
     26850      8950  TIP3      H2             29.1893912922        7.3266136235       17.9940958414  W2        8950            0.0000000000
     26851      8951  TIP3      OH2            24.3390212922        3.9850336235       13.6238158414  W2        8951            0.0000000000
     26852      8951  TIP3      H1             24.0219712922        3.0825636235       13.5883558414  W2        8951            0.0000000000
     26853      8951  TIP3      H2             25.1204312922        3.9867736235       13.0709758414  W2        8951            0.0000000000
     26854      8952  TIP3      OH2            27.9636412922        6.2370336235       19.6193758414  W2        8952            0.0000000000
     26855      8952  TIP3      H1             27.1281712922        6.6909836235       19.7296158414  W2        8952            0.0000000000
     26856      8952  TIP3      H2             28.4877012922        6.5128836235       20.3713658414  W2        8952            0.0000000000
     26857      8953  TIP3      OH2            28.5079012922       12.4498036235       11.3040158414  W2        8953            0.0000000000
     26858      8953  TIP3      H1             27.7630012922       11.9423336235       10.9818058414  W2        8953            0.0000000000
     26859      8953  TIP3      H2             28.3736212922       12.4986036235       12.2504958414  W2        8953            0.0000000000
     26860      8954  TIP3      OH2            35.6577912922       11.5826236235       20.0907758414  W2        8954            0.0000000000
     26861      8954  TIP3      H1             36.2996712922       12.0392536235       19.5469958414  W2        8954            0.0000000000
     26862      8954  TIP3      H2             34.8274812922       11.6958636235       19.6281858414  W2        8954            0.0000000000
     26863      8955  TIP3      OH2            32.4055812922        5.2637936235        9.5032758414  W2        8955            0.0000000000
     26864      8955  TIP3      H1             31.4670012922        5.3753536235        9.3521558414  W2        8955            0.0000000000
     26865      8955  TIP3      H2             32.7027912922        6.1204836235        9.8098458414  W2        8955            0.0000000000
     26866      8956  TIP3      OH2            30.0271112922       12.6341336235       22.5409258414  W2        8956            0.0000000000
     26867      8956  TIP3      H1             29.6817212922       12.2523736235       23.3478858414  W2        8956            0.0000000000
     26868      8956  TIP3      H2             29.8271212922       13.5674936235       22.6122158414  W2        8956            0.0000000000
     26869      8957  TIP3      OH2            33.1239312922        7.1310636235       11.1640158414  W2        8957            0.0000000000
     26870      8957  TIP3      H1             34.0158312922        6.9935636235       11.4831358414  W2        8957            0.0000000000
     26871      8957  TIP3      H2             33.1802912922        7.9216736235       10.6273658414  W2        8957            0.0000000000
     26872      8958  TIP3      OH2            23.6327312922       11.7448036235       17.0738058414  W2        8958            0.0000000000
     26873      8958  TIP3      H1             24.3774512922       11.7423736235       16.4724558414  W2        8958            0.0000000000
     26874      8958  TIP3      H2             23.7103912922       10.9211836235       17.5553158414  W2        8958            0.0000000000
     26875      8959  TIP3      OH2            30.6333112922       13.9082336235       10.3294758414  W2        8959            0.0000000000
     26876      8959  TIP3      H1             30.3381512922       14.7350236235       10.7109558414  W2        8959            0.0000000000
     26877      8959  TIP3      H2             29.9303112922       13.2889236235       10.5256158414  W2        8959            0.0000000000
     26878      8960  TIP3      OH2            20.6407012922       10.2054936235       22.3886558414  W2        8960            0.0000000000
     26879      8960  TIP3      H1             20.8635612922        9.7874536235       23.2204058414  W2        8960            0.0000000000
     26880      8960  TIP3      H2             20.0387112922        9.5929936235       21.9659358414  W2        8960            0.0000000000
     26881      8961  TIP3      OH2            27.6571912922        9.7224836235       24.6016258414  W2        8961            0.0000000000
     26882      8961  TIP3      H1             27.3612712922        9.5567836235       23.7065358414  W2        8961            0.0000000000
     26883      8961  TIP3      H2             28.5887112922        9.5025136235       24.5910158414  W2        8961            0.0000000000
     26884      8962  TIP3      OH2            32.2774712922       15.0956836235       22.4914258414  W2        8962            0.0000000000
     26885      8962  TIP3      H1             31.3769012922       15.2789436235       22.2238158414  W2        8962            0.0000000000
     26886      8962  TIP3      H2             32.3115812922       15.3546136235       23.4123058414  W2        8962            0.0000000000
     26887      8963  TIP3      OH2            36.3039712922       16.1265136235       11.3238958414  W2        8963            0.0000000000
     26888      8963  TIP3      H1             35.9310812922       15.3008936235       11.6329558414  W2        8963            0.0000000000
     26889      8963  TIP3      H2             36.5813212922       15.9434536235       10.4262358414  W2        8963            0.0000000000
     26890      8964  TIP3      OH2            33.4643612922       10.9344636235       18.3450858414  W2        8964            0.0000000000
     26891      8964  TIP3      H1             32.5360512922       10.7026536235       18.3180158414  W2        8964            0.0000000000
     26892      8964  TIP3      H2             33.9154712922       10.1574436235       18.0149658414  W2        8964            0.0000000000
     26893      8965  TIP3      OH2            26.0076712922       15.2626236235       14.4779558414  W2        8965            0.0000000000
     26894      8965  TIP3      H1             26.5348912922       16.0360636235       14.2778358414  W2        8965            0.0000000000
     26895      8965  TIP3      H2             25.1275212922       15.4875436235       14.1763558414  W2        8965            0.0000000000
     26896      8966  TIP3      OH2            21.7624412922       10.1250336235        9.0651958414  W2        8966            0.0000000000
     26897      8966  TIP3      H1             22.3784312922       10.7517536235        9.4446758414  W2        8966            0.0000000000
     26898      8966  TIP3      H2             20.9007012922       10.4410136235        9.3368458414  W2        8966            0.0000000000
     26899      8967  TIP3      OH2            27.4349012922       12.9256136235       14.0543858414  W2        8967            0.0000000000
     26900      8967  TIP3      H1             27.1939012922       13.8510536235       14.0959158414  W2        8967            0.0000000000
     26901      8967  TIP3      H2             26.6942612922       12.4667436235       14.4507758414  W2        8967            0.0000000000
     26902      8968  TIP3      OH2            27.9495612922       17.0749736235       20.3694958414  W2        8968            0.0000000000
     26903      8968  TIP3      H1             28.3120312922       17.9295336235       20.1359358414  W2        8968            0.0000000000
     26904      8968  TIP3      H2             28.4810812922       16.7831336235       21.1101258414  W2        8968            0.0000000000
     26905      8969  TIP3      OH2            26.1179812922       17.9473736235       13.5996058414  W2        8969            0.0000000000
     26906      8969  TIP3      H1             25.1680312922       18.0531136235       13.6509358414  W2        8969            0.0000000000
     26907      8969  TIP3      H2             26.4697912922       18.7681136235       13.9443558414  W2        8969            0.0000000000
     26908      8970  TIP3      OH2            31.4936412922       13.1740436235       20.0700558414  W2        8970            0.0000000000
     26909      8970  TIP3      H1             31.0677712922       12.9462136235       20.8964558414  W2        8970            0.0000000000
     26910      8970  TIP3      H2             32.0742212922       12.4352236235       19.8875858414  W2        8970            0.0000000000
     26911      8971  TIP3      OH2            33.6965312922       14.1030936235        9.1439558414  W2        8971            0.0000000000
     26912      8971  TIP3      H1             34.0498412922       13.7230736235        9.9483058414  W2        8971            0.0000000000
     26913      8971  TIP3      H2             32.7478812922       14.0095736235        9.2308858414  W2        8971            0.0000000000
     26914      8972  TIP3      OH2            34.1520612922       17.7259936235       22.5395358414  W2        8972            0.0000000000
     26915      8972  TIP3      H1             33.5503812922       17.1702836235       22.0441658414  W2        8972            0.0000000000
     26916      8972  TIP3      H2             34.4334312922       18.3929736235       21.9132758414  W2        8972            0.0000000000
     26917      8973  TIP3      OH2            22.2746512922        4.9587636235       21.9467958414  W2        8973            0.0000000000
     26918      8973  TIP3      H1             21.3818812922        5.2973036235       21.8791958414  W2        8973            0.0000000000
     26919      8973  TIP3      H2             22.1759312922        4.1033736235       22.3648758414  W2        8973            0.0000000000
     26920      8974  TIP3      OH2            34.5624612922       12.7752936235       11.3707458414  W2        8974            0.0000000000
     26921      8974  TIP3      H1             34.2852212922       12.0472236235       11.9268558414  W2        8974            0.0000000000
     26922      8974  TIP3      H2             35.4897612922       12.8944936235       11.5760058414  W2        8974            0.0000000000
     26923      8975  TIP3      OH2            21.9258512922       16.7632036235       20.3817358414  W2        8975            0.0000000000
     26924      8975  TIP3      H1             22.1428812922       15.8314436235       20.3507058414  W2        8975            0.0000000000
     26925      8975  TIP3      H2             22.1722012922       17.0377036235       21.2650158414  W2        8975            0.0000000000
     26926      8976  TIP3      OH2            27.7873112922       15.2147036235        7.5909558414  W2        8976            0.0000000000
     26927      8976  TIP3      H1             28.0262912922       14.4665136235        7.0438458414  W2        8976            0.0000000000
     26928      8976  TIP3      H2             27.5184412922       14.8268736235        8.4237358414  W2        8976            0.0000000000
     26929      8977  TIP3      OH2            26.7243712922       14.7850836235       10.0472158414  W2        8977            0.0000000000
     26930      8977  TIP3      H1             26.8711712922       14.2650636235       10.8373058414  W2        8977            0.0000000000
     26931      8977  TIP3      H2             26.7215412922       15.6918436235       10.3538058414  W2        8977            0.0000000000
     26932      8978  TIP3      OH2            23.1774812922       12.0374136235       10.5577558414  W2        8978            0.0000000000
     26933      8978  TIP3      H1             22.4914112922       12.3896636235       11.1247258414  W2        8978            0.0000000000
     26934      8978  TIP3      H2             23.7002712922       12.8003736235       10.3111858414  W2        8978            0.0000000000
     26935      8979  TIP3      OH2            31.0089912922        4.6997936235       20.8366558414  W2        8979            0.0000000000
     26936      8979  TIP3      H1             31.7077812922        4.7736636235       21.4866258414  W2        8979            0.0000000000
     26937      8979  TIP3      H2             30.6281312922        3.8352936235       20.9909458414  W2        8979            0.0000000000
     26938      8980  TIP3      OH2            31.7934812922        4.3519636235       11.9338858414  W2        8980            0.0000000000
     26939      8980  TIP3      H1             32.0133112922        4.8235036235       11.1304258414  W2        8980            0.0000000000
     26940      8980  TIP3      H2             32.3518812922        4.7462236235       12.6039458414  W2        8980            0.0000000000
     26941      8981  TIP3      OH2            29.4620912922       16.4824436235       10.7966358414  W2        8981            0.0000000000
     26942      8981  TIP3      H1             28.6457012922       16.9794136235       10.8490658414  W2        8981            0.0000000000
     26943      8981  TIP3      H2             29.9917212922       16.9577936235       10.1565158414  W2        8981            0.0000000000
     26944      8982  TIP3      OH2            28.9934712922        6.0798436235       12.7687258414  W2        8982            0.0000000000
     26945      8982  TIP3      H1             29.8057312922        6.5841636235       12.8148958414  W2        8982            0.0000000000
     26946      8982  TIP3      H2             28.7487712922        5.9348136235       13.6826858414  W2        8982            0.0000000000
     26947      8983  TIP3      OH2            29.5291112922        7.0661136235       21.9533858414  W2        8983            0.0000000000
     26948      8983  TIP3      H1             29.6481412922        7.6396536235       22.7104258414  W2        8983            0.0000000000
     26949      8983  TIP3      H2             30.1845712922        6.3780536235       22.0681658414  W2        8983            0.0000000000
     26950      8984  TIP3      OH2            29.8771412922        3.1611436235       13.7068358414  W2        8984            0.0000000000
     26951      8984  TIP3      H1             29.5304912922        3.7782036235       14.3512658414  W2        8984            0.0000000000
     26952      8984  TIP3      H2             30.5358312922        3.6617136235       13.2253858414  W2        8984            0.0000000000
     26953      8985  TIP3      OH2            26.8004012922       17.5261636235       10.7783258414  W2        8985            0.0000000000
     26954      8985  TIP3      H1             26.9612712922       18.3259136235       10.2775858414  W2        8985            0.0000000000
     26955      8985  TIP3      H2             26.6031812922       17.8327636235       11.6633858414  W2        8985            0.0000000000
     26956      8986  TIP3      OH2            25.5348412922        4.2240836235       10.3940858414  W2        8986            0.0000000000
     26957      8986  TIP3      H1             25.4513212922        5.1123936235       10.7407258414  W2        8986            0.0000000000
     26958      8986  TIP3      H2             26.4248712922        3.9587536235       10.6257658414  W2        8986            0.0000000000
     26959      8987  TIP3      OH2            35.7336912922        4.9731436235       22.7883558414  W2        8987            0.0000000000
     26960      8987  TIP3      H1             34.8172712922        5.2353136235       22.7007258414  W2        8987            0.0000000000
     26961      8987  TIP3      H2             36.0691912922        4.9700436235       21.8918858414  W2        8987            0.0000000000
     26962      8988  TIP3      OH2            34.3357912922        8.7232436235       16.8840858414  W2        8988            0.0000000000
     26963      8988  TIP3      H1             33.5382312922        8.3082636235       16.5555858414  W2        8988            0.0000000000
     26964      8988  TIP3      H2             34.7809012922        8.0326136235       17.3751358414  W2        8988            0.0000000000
     26965      8989  TIP3      OH2            23.7933712922       14.6513036235        9.4545358414  W2        8989            0.0000000000
     26966      8989  TIP3      H1             24.3855212922       15.3507836235        9.7307758414  W2        8989            0.0000000000
     26967      8989  TIP3      H2             24.2526712922       14.2182536235        8.7349958414  W2        8989            0.0000000000
     26968      8990  TIP3      OH2            22.1092912922        7.3156036235        8.5704758414  W2        8990            0.0000000000
     26969      8990  TIP3      H1             22.0645512922        8.2549136235        8.7491758414  W2        8990            0.0000000000
     26970      8990  TIP3      H2             21.2216112922        7.0800936235        8.3006858414  W2        8990            0.0000000000
     26971      8991  TIP3      OH2            35.4222512922       17.9794936235       18.5064358414  W2        8991            0.0000000000
     26972      8991  TIP3      H1             35.2666812922       18.6579336235       17.8493658414  W2        8991            0.0000000000
     26973      8991  TIP3      H2             36.3548912922       18.0514236235       18.7094958414  W2        8991            0.0000000000
     26974      8992  TIP3      OH2            22.9174912922        2.0972636235       17.2435758414  W2        8992            0.0000000000
     26975      8992  TIP3      H1             22.6884712922        2.1565136235       16.3160758414  W2        8992            0.0000000000
     26976      8992  TIP3      H2             22.4748312922        1.3058136235       17.5499858414  W2        8992            0.0000000000
     26977      8993  TIP3      OH2            21.8478212922       16.0379736235       13.4041558414  W2        8993            0.0000000000
     26978      8993  TIP3      H1             21.0156812922       16.5102436235       13.4312958414  W2        8993            0.0000000000
     26979      8993  TIP3      H2             22.3936512922       16.5477336235       12.8054658414  W2        8993            0.0000000000
     26980      8994  TIP3      OH2            21.1361912922       18.6503436235       24.7339558414  W2        8994            0.0000000000
     26981      8994  TIP3      H1             21.6764112922       18.4337436235       25.4938758414  W2        8994            0.0000000000
     26982      8994  TIP3      H2             20.6549912922       17.8449436235       24.5442058414  W2        8994            0.0000000000
     26983      8995  TIP3      OH2            25.7335312922       17.5697836235       26.3543758414  W2        8995            0.0000000000
     26984      8995  TIP3      H1             26.5012512922       17.1108636235       26.6952958414  W2        8995            0.0000000000
     26985      8995  TIP3      H2             25.7121512922       17.3437636235       25.4244958414  W2        8995            0.0000000000
     26986      8996  TIP3      OH2            29.8254912922       17.0778436235        7.7295558414  W2        8996            0.0000000000
     26987      8996  TIP3      H1             29.1815912922       16.4467036235        8.0509258414  W2        8996            0.0000000000
     26988      8996  TIP3      H2             30.5873212922       16.5466436235        7.4979058414  W2        8996            0.0000000000
     26989      8997  TIP3      OH2            32.3104012922       15.9498936235       25.0835258414  W2        8997            0.0000000000
     26990      8997  TIP3      H1             31.9593512922       15.0931936235       25.3265658414  W2        8997            0.0000000000
     26991      8997  TIP3      H2             33.0367212922       16.0925636235       25.6904258414  W2        8997            0.0000000000
     26992      8998  TIP3      OH2            34.4297812922       16.8948336235        7.9633558414  W2        8998            0.0000000000
     26993      8998  TIP3      H1             34.7128212922       16.1003536235        8.4160458414  W2        8998            0.0000000000
     26994      8998  TIP3      H2             35.1695712922       17.1279336235        7.4024658414  W2        8998            0.0000000000
     26995      8999  TIP3      OH2            21.0431412922       12.4607536235       25.6883858414  W2        8999            0.0000000000
     26996      8999  TIP3      H1             21.1871912922       11.5588236235       25.4020558414  W2        8999            0.0000000000
     26997      8999  TIP3      H2             20.2708812922       12.7469636235       25.2006158414  W2        8999            0.0000000000
     26998      9000  TIP3      OH2            25.3845112922       12.8043236235        7.8208458414  W2        9000            0.0000000000
     26999      9000  TIP3      H1             25.4489212922       12.0102836235        8.3514858414  W2        9000            0.0000000000
     27000      9000  TIP3      H2             26.0374312922       12.6856036235        7.1310458414  W2        9000            0.0000000000
     27001      9001  TIP3      OH2            27.6987512922       12.4305636235       25.1210258414  W2        9001            0.0000000000
     27002      9001  TIP3      H1             27.3701312922       12.7013736235       24.2637658414  W2        9001            0.0000000000
     27003      9001  TIP3      H2             27.8505712922       11.4895436235       25.0335258414  W2        9001            0.0000000000
     27004      9002  TIP3      OH2            30.7368512922       13.8514936235        7.5566458414  W2        9002            0.0000000000
     27005      9002  TIP3      H1             30.4682612922       14.0317036235        8.4575358414  W2        9002            0.0000000000
     27006      9002  TIP3      H2             30.5304112922       12.9261136235        7.4252258414  W2        9002            0.0000000000
     27007      9003  TIP3      OH2            33.4332712922       12.3462936235       22.5042558414  W2        9003            0.0000000000
     27008      9003  TIP3      H1             34.1787512922       12.9346636235       22.3846558414  W2        9003            0.0000000000
     27009      9003  TIP3      H2             32.6759512922       12.9282636235       22.5675658414  W2        9003            0.0000000000
     27010      9004  TIP3      OH2            21.8757912922        9.6610836235       25.1083158414  W2        9004            0.0000000000
     27011      9004  TIP3      H1             22.2839112922        8.8037436235       24.9873758414  W2        9004            0.0000000000
     27012      9004  TIP3      H2             21.6155512922        9.6752136235       26.0293458414  W2        9004            0.0000000000
     27013      9005  TIP3      OH2            26.5338912922       10.7769436235       10.1266458414  W2        9005            0.0000000000
     27014      9005  TIP3      H1             26.0740912922       10.2927736235       10.8124958414  W2        9005            0.0000000000
     27015      9005  TIP3      H2             26.7887612922       10.1084836235        9.4906958414  W2        9005            0.0000000000
     27016      9006  TIP3      OH2            25.8228212922        8.6696536235       22.4826058414  W2        9006            0.0000000000
     27017      9006  TIP3      H1             25.2044312922        9.3443136235       22.7630758414  W2        9006            0.0000000000
     27018      9006  TIP3      H2             26.1669412922        8.9910436235       21.6492258414  W2        9006            0.0000000000
     27019      9007  TIP3      OH2            27.6049312922        9.0201236235        8.3889658414  W2        9007            0.0000000000
     27020      9007  TIP3      H1             27.4244312922        8.8652436235        7.4617958414  W2        9007            0.0000000000
     27021      9007  TIP3      H2             28.5549812922        9.1279936235        8.4337558414  W2        9007            0.0000000000
     27022      9008  TIP3      OH2            30.8426412922       11.1411836235       25.7600858414  W2        9008            0.0000000000
     27023      9008  TIP3      H1             31.7957612922       11.2250936235       25.7326858414  W2        9008            0.0000000000
     27024      9008  TIP3      H2             30.6821012922       10.4293636235       26.3795758414  W2        9008            0.0000000000
     27025      9009  TIP3      OH2            26.1621912922        6.0247336235       23.5649158414  W2        9009            0.0000000000
     27026      9009  TIP3      H1             26.3122812922        5.2958636235       22.9628858414  W2        9009            0.0000000000
     27027      9009  TIP3      H2             26.1644312922        6.8019036235       23.0061358414  W2        9009            0.0000000000
     27028      9010  TIP3      OH2            26.5747612922        4.3943136235       21.0576558414  W2        9010            0.0000000000
     27029      9010  TIP3      H1             27.1105112922        4.8459836235       20.4055858414  W2        9010            0.0000000000
     27030      9010  TIP3      H2             25.7227212922        4.2862936235       20.6350658414  W2        9010            0.0000000000
     27031      9011  TIP3      OH2            28.1566012922        9.8339336235       21.2971758414  W2        9011            0.0000000000
     27032      9011  TIP3      H1             28.9070812922        9.6776836235       20.7239558414  W2        9011            0.0000000000
     27033      9011  TIP3      H2             27.8174312922       10.6855936235       21.0217258414  W2        9011            0.0000000000
     27034      9012  TIP3      OH2            32.5722212922        7.6491136235       26.3257058414  W2        9012            0.0000000000
     27035      9012  TIP3      H1             32.7643512922        6.7180536235       26.2141558414  W2        9012            0.0000000000
     27036      9012  TIP3      H2             33.4298512922        8.0740636235       26.3152458414  W2        9012            0.0000000000
     27037      9013  TIP3      OH2            33.8889412922       10.4376336235       24.4029758414  W2        9013            0.0000000000
     27038      9013  TIP3      H1             33.6074412922       11.1470936235       23.8253558414  W2        9013            0.0000000000
     27039      9013  TIP3      H2             34.8313712922       10.3649336235       24.2520958414  W2        9013            0.0000000000
     27040      9014  TIP3      OH2            24.6408212922        7.2230836235       25.4764758414  W2        9014            0.0000000000
     27041      9014  TIP3      H1             23.8737212922        6.6905636235       25.2662358414  W2        9014            0.0000000000
     27042      9014  TIP3      H2             25.3197212922        6.9131236235       24.8771058414  W2        9014            0.0000000000
     27043      9015  TIP3      OH2            27.3803112922        1.8508836235       21.4890158414  W2        9015            0.0000000000
     27044      9015  TIP3      H1             27.2822712922        2.7972036235       21.3836358414  W2        9015            0.0000000000
     27045      9015  TIP3      H2             26.6379312922        1.4782636235       21.0133658414  W2        9015            0.0000000000
     27046      9016  TIP3      OH2            28.6443612922        6.1724236235       25.0528558414  W2        9016            0.0000000000
     27047      9016  TIP3      H1             28.4089012922        5.9530936235       25.9543458414  W2        9016            0.0000000000
     27048      9016  TIP3      H2             27.8610512922        5.9655436235       24.5431058414  W2        9016            0.0000000000
     27049      9017  TIP3      OH2            31.3600212922        5.2997736235       24.1282058414  W2        9017            0.0000000000
     27050      9017  TIP3      H1             30.4125612922        5.3317436235       24.2605358414  W2        9017            0.0000000000
     27051      9017  TIP3      H2             31.6726912922        4.6744836235       24.7820258414  W2        9017            0.0000000000
     27052      9018  TIP3      OH2            32.9941712922        3.9338836235       26.1333958414  W2        9018            0.0000000000
     27053      9018  TIP3      H1             32.8973512922        2.9816136235       26.1275858414  W2        9018            0.0000000000
     27054      9018  TIP3      H2             32.6724812922        4.2025636235       26.9939458414  W2        9018            0.0000000000
     27055      9019  TIP3      OH2            22.8211012922        5.1434636235       25.1809458414  W2        9019            0.0000000000
     27056      9019  TIP3      H1             23.0328412922        4.4370736235       24.5706958414  W2        9019            0.0000000000
     27057      9019  TIP3      H2             22.7098512922        4.7060636235       26.0250658414  W2        9019            0.0000000000
     27058      9020  TIP3      OH2            27.6021212922        1.1446236235       24.1602958414  W2        9020            0.0000000000
     27059      9020  TIP3      H1             28.3139612922        0.5048436235       24.1462058414  W2        9020            0.0000000000
     27060      9020  TIP3      H2             27.5011612922        1.4114536235       23.2466058414  W2        9020            0.0000000000
     27061      9021  TIP3      OH2            27.9558712922        2.8274636235       26.2139258414  W2        9021            0.0000000000
     27062      9021  TIP3      H1             27.8240912922        2.3518436235       25.3937758414  W2        9021            0.0000000000
     27063      9021  TIP3      H2             27.3566112922        3.5718236235       26.1586358414  W2        9021            0.0000000000
     27064      9022  TIP3      OH2            27.5021012922       19.7104936235        9.3903258414  W2        9022            0.0000000000
     27065      9022  TIP3      H1             28.4351712922       19.8683636235        9.5341658414  W2        9022            0.0000000000
     27066      9022  TIP3      H2             27.2379812922       20.3857936235        8.7654758414  W2        9022            0.0000000000
     27067      9023  TIP3      OH2            21.0705912922       14.3468736235        8.8731358414  W2        9023            0.0000000000
     27068      9023  TIP3      H1             21.9845112922       14.4257636235        9.1465258414  W2        9023            0.0000000000
     27069      9023  TIP3      H2             21.0779012922       13.6598336235        8.2066958414  W2        9023            0.0000000000
     27070      9024  TIP3      OH2            19.7196512922       19.7397236235       13.9505258414  W2        9024            0.0000000000
     27071      9024  TIP3      H1             19.0723612922       19.2778936235       13.4176458414  W2        9024            0.0000000000
     27072      9024  TIP3      H2             20.0741112922       19.0680536235       14.5331458414  W2        9024            0.0000000000
     27073      9025  TIP3      OH2            20.5895712922       17.8204236235       15.7551458414  W2        9025            0.0000000000
     27074      9025  TIP3      H1             20.2552512922       16.9401536235       15.9271658414  W2        9025            0.0000000000
     27075      9025  TIP3      H2             20.8118112922       18.1659236235       16.6197058414  W2        9025            0.0000000000
     27076      9026  TIP3      OH2            36.1520712922       13.9869836235       26.2955658414  W2        9026            0.0000000000
     27077      9026  TIP3      H1             35.2861812922       13.8819536235       26.6897958414  W2        9026            0.0000000000
     27078      9026  TIP3      H2             36.5286612922       14.7453136235       26.7420358414  W2        9026            0.0000000000
     27079      9027  TIP3      OH2            36.0929512922       15.9595936235       20.8879858414  W2        9027            0.0000000000
     27080      9027  TIP3      H1             35.4454812922       16.2847436235       21.5135058414  W2        9027            0.0000000000
     27081      9027  TIP3      H2             35.5753512922       15.5193636235       20.2138158414  W2        9027            0.0000000000
     27082      9028  TIP3      OH2            36.4648112922        7.4375036235        8.5752258414  W2        9028            0.0000000000
     27083      9028  TIP3      H1             36.5612512922        8.1042036235        7.8951958414  W2        9028            0.0000000000
     27084      9028  TIP3      H2             36.3247712922        6.6221336235        8.0937758414  W2        9028            0.0000000000
     27085      9029  TIP3      OH2            35.6342812922        8.8177436235       14.1962558414  W2        9029            0.0000000000
     27086      9029  TIP3      H1             35.4841612922        7.8726036235       14.1760358414  W2        9029            0.0000000000
     27087      9029  TIP3      H2             35.2807312922        9.0988836235       15.0401658414  W2        9029            0.0000000000
     27088      9030  TIP3      OH2            20.6695212922       10.8959636235       18.2066358414  W2        9030            0.0000000000
     27089      9030  TIP3      H1             20.8538112922       10.8141336235       17.2709258414  W2        9030            0.0000000000
     27090      9030  TIP3      H2             21.5188112922       10.7716636235       18.6302758414  W2        9030            0.0000000000
     27091      9031  TIP3      OH2            36.4905712922       10.7880736235       23.8350858414  W2        9031            0.0000000000
     27092      9031  TIP3      H1             37.0733012922       10.0533036235       24.0268058414  W2        9031            0.0000000000
     27093      9031  TIP3      H2             37.0545012922       11.5601036235       23.8816658414  W2        9031            0.0000000000
     27094      9032  TIP3      OH2            35.7121912922        4.8454836235        7.6927758414  W2        9032            0.0000000000
     27095      9032  TIP3      H1             36.3227712922        4.4741636235        8.3295958414  W2        9032            0.0000000000
     27096      9032  TIP3      H2             34.8753412922        4.4241736235        7.8887758414  W2        9032            0.0000000000
     27097      9033  TIP3      OH2            35.3447612922        6.4003236235       12.6587658414  W2        9033            0.0000000000
     27098      9033  TIP3      H1             35.6244712922        5.4933636235       12.7829358414  W2        9033            0.0000000000
     27099      9033  TIP3      H2             36.1039312922        6.8344736235       12.2696858414  W2        9033            0.0000000000
     27100      9034  TIP3      OH2            35.9565912922        6.9820636235       18.0946558414  W2        9034            0.0000000000
     27101      9034  TIP3      H1             36.8893912922        7.1940536235       18.0602558414  W2        9034            0.0000000000
     27102      9034  TIP3      H2             35.7213412922        7.0832736235       19.0169558414  W2        9034            0.0000000000
     27103      9035  TIP3      OH2            35.9857812922        7.7185936235       20.8705958414  W2        9035            0.0000000000
     27104      9035  TIP3      H1             35.1429112922        7.9866336235       21.2365758414  W2        9035            0.0000000000
     27105      9035  TIP3      H2             36.4282112922        8.5407836235       20.6597058414  W2        9035            0.0000000000
     27106      9036  TIP3      OH2            20.2670012922        6.1664636235       24.3475158414  W2        9036            0.0000000000
     27107      9036  TIP3      H1             21.1864912922        6.0442936235       24.5838258414  W2        9036            0.0000000000
     27108      9036  TIP3      H2             19.8174512922        5.4164336235       24.7368658414  W2        9036            0.0000000000
     27109      9037  TIP3      OH2            35.9582412922        3.6632536235       12.7069658414  W2        9037            0.0000000000
     27110      9037  TIP3      H1             36.1407412922        3.2144036235       13.5324658414  W2        9037            0.0000000000
     27111      9037  TIP3      H2             35.3585312922        3.0786936235       12.2434258414  W2        9037            0.0000000000
     27112      9038  TIP3      OH2            21.4882512922        4.4786236235       17.2388058414  W2        9038            0.0000000000
     27113      9038  TIP3      H1             21.9334112922        3.6868736235       17.5407758414  W2        9038            0.0000000000
     27114      9038  TIP3      H2             21.9545512922        5.1951436235       17.6693658414  W2        9038            0.0000000000
     27115      9039  TIP3      OH2            19.7922812922        7.4779236235       18.3078258414  W2        9039            0.0000000000
     27116      9039  TIP3      H1             20.2842612922        7.2569736235       17.5170258414  W2        9039            0.0000000000
     27117      9039  TIP3      H2             20.1543712922        8.3182636235       18.5887758414  W2        9039            0.0000000000
     27118      9040  TIP3      OH2            20.1059312922        3.7358336235       12.3620658414  W2        9040            0.0000000000
     27119      9040  TIP3      H1             19.1807712922        3.9444936235       12.2326158414  W2        9040            0.0000000000
     27120      9040  TIP3      H2             20.5599212922        4.2199136235       11.6722958414  W2        9040            0.0000000000
     27121      9041  TIP3      OH2            34.8766512922       18.7200036235       14.3078058414  W2        9041            0.0000000000
     27122      9041  TIP3      H1             35.5289412922       18.3722136235       13.6997158414  W2        9041            0.0000000000
     27123      9041  TIP3      H2             35.3870312922       19.2083236235       14.9537758414  W2        9041            0.0000000000
     27124      9042  TIP3      OH2            20.0694712922        2.4737336235       20.7063158414  W2        9042            0.0000000000
     27125      9042  TIP3      H1             19.4045212922        2.2277636235       21.3494058414  W2        9042            0.0000000000
     27126      9042  TIP3      H2             19.6266012922        3.0957736235       20.1291158414  W2        9042            0.0000000000
     27127      9043  TIP3      OH2            22.2614012922       15.6491436235       24.8508958414  W2        9043            0.0000000000
     27128      9043  TIP3      H1             21.4406512922       15.8237936235       24.3903658414  W2        9043            0.0000000000
     27129      9043  TIP3      H2             22.0091812922       15.5756136235       25.7713358414  W2        9043            0.0000000000
     27130      9044  TIP3      OH2            25.2156912922       16.6232636235       21.1092958414  W2        9044            0.0000000000
     27131      9044  TIP3      H1             24.7908012922       17.4331136235       20.8267558414  W2        9044            0.0000000000
     27132      9044  TIP3      H2             26.1199712922       16.7086736235       20.8072758414  W2        9044            0.0000000000
     27133      9045  TIP3      OH2            29.5268312922       18.0222636235       24.0686658414  W2        9045            0.0000000000
     27134      9045  TIP3      H1             29.7115812922       17.6888736235       24.9466958414  W2        9045            0.0000000000
     27135      9045  TIP3      H2             30.3732812922       18.3321236235       23.7465858414  W2        9045            0.0000000000
     27136      9046  TIP3      OH2            31.8718712922       19.3081536235       23.3128058414  W2        9046            0.0000000000
     27137      9046  TIP3      H1             32.5487612922       18.6753836235       23.0727258414  W2        9046            0.0000000000
     27138      9046  TIP3      H2             32.1937512922       19.7092036235       24.1201358414  W2        9046            0.0000000000
     27139      9047  TIP3      OH2            22.6173612922       19.8796536235       21.1568258414  W2        9047            0.0000000000
     27140      9047  TIP3      H1             21.8970012922       20.3197536235       20.7055958414  W2        9047            0.0000000000
     27141      9047  TIP3      H2             22.2517612922       19.6291236235       22.0052258414  W2        9047            0.0000000000
     27142      9048  TIP3      OH2            25.0846212922       19.4800436235       20.1865458414  W2        9048            0.0000000000
     27143      9048  TIP3      H1             24.2198412922       19.5518936235       20.5905558414  W2        9048            0.0000000000
     27144      9048  TIP3      H2             25.0295212922       20.0267736235       19.4027958414  W2        9048            0.0000000000
     27145      9049  TIP3      OH2            29.7951812922       19.3679336235       19.3621458414  W2        9049            0.0000000000
     27146      9049  TIP3      H1             29.3385812922       19.8969036235       18.7079858414  W2        9049            0.0000000000
     27147      9049  TIP3      H2             29.9579812922       19.9710736235       20.0873758414  W2        9049            0.0000000000
     27148      9050  TIP3      OH2            32.1228112922       18.2458936235       20.3071758414  W2        9050            0.0000000000
     27149      9050  TIP3      H1             31.2181812922       18.4109136235       20.0413858414  W2        9050            0.0000000000
     27150      9050  TIP3      H2             32.5516712922       19.0991136235       20.2415158414  W2        9050            0.0000000000
     27151      9051  TIP3      OH2            34.7270012922       19.8158036235       20.6019558414  W2        9051            0.0000000000
     27152      9051  TIP3      H1             34.5452012922       20.7316936235       20.3914458414  W2        9051            0.0000000000
     27153      9051  TIP3      H2             34.9037812922       19.4055136235       19.7554158414  W2        9051            0.0000000000
     27154      9052  TIP3      OH2            22.0321712922       18.5029036235       18.0670058414  W2        9052            0.0000000000
     27155      9052  TIP3      H1             22.0137712922       18.0774136235       18.9242358414  W2        9052            0.0000000000
     27156      9052  TIP3      H2             22.8369612922       18.1844036235       17.6582258414  W2        9052            0.0000000000
     27157      9053  TIP3      OH2            24.1734812922       17.2127736235       16.7219958414  W2        9053            0.0000000000
     27158      9053  TIP3      H1             23.9545512922       16.2965136235       16.8915958414  W2        9053            0.0000000000
     27159      9053  TIP3      H2             24.9977012922       17.3528136235       17.1881358414  W2        9053            0.0000000000
     27160      9054  TIP3      OH2            26.7107312922       17.6827036235       17.5707958414  W2        9054            0.0000000000
     27161      9054  TIP3      H1             26.9233012922       16.7946036235       17.2838858414  W2        9054            0.0000000000
     27162      9054  TIP3      H2             26.7752412922       17.6484736235       18.5251958414  W2        9054            0.0000000000
     27163      9055  TIP3      OH2            30.2191012922        3.3467636235       16.7151258414  W2        9055            0.0000000000
     27164      9055  TIP3      H1             29.5447812922        2.7173236235       16.9707058414  W2        9055            0.0000000000
     27165      9055  TIP3      H2             30.7830212922        2.8626536235       16.1119158414  W2        9055            0.0000000000
     27166      9056  TIP3      OH2            35.3618212922        1.4541636235       16.8278358414  W2        9056            0.0000000000
     27167      9056  TIP3      H1             35.9655812922        2.0017036235       16.3259358414  W2        9056            0.0000000000
     27168      9056  TIP3      H2             34.4920212922        1.7732036235       16.5872458414  W2        9056            0.0000000000
     27169      9057  TIP3      OH2            22.5458512922        1.9807936235       14.5371158414  W2        9057            0.0000000000
     27170      9057  TIP3      H1             21.7688312922        1.7462836235       14.0297058414  W2        9057            0.0000000000
     27171      9057  TIP3      H2             23.0762112922        1.1840036235       14.5459158414  W2        9057            0.0000000000
     27172      9058  TIP3      OH2            21.3821912922        1.7786036235       10.3407258414  W2        9058            0.0000000000
     27173      9058  TIP3      H1             21.8212612922        2.3896536235        9.7490758414  W2        9058            0.0000000000
     27174      9058  TIP3      H2             20.7484312922        2.3170136235       10.8147258414  W2        9058            0.0000000000
     27175      9059  TIP3      OH2            27.1251112922        1.9075036235       14.3504258414  W2        9059            0.0000000000
     27176      9059  TIP3      H1             27.9994512922        2.2959336235       14.3208558414  W2        9059            0.0000000000
     27177      9059  TIP3      H2             26.9891912922        1.6922836235       15.2731458414  W2        9059            0.0000000000
     27178      9060  TIP3      OH2            32.6819512922        1.9374836235       15.9995958414  W2        9060            0.0000000000
     27179      9060  TIP3      H1             32.7581112922        2.0326436235       15.0501958414  W2        9060            0.0000000000
     27180      9060  TIP3      H2             32.4068712922        1.0297736235       16.1285058414  W2        9060            0.0000000000
     27181      9061  TIP3      OH2            34.0352112922        1.9632636235       11.6920958414  W2        9061            0.0000000000
     27182      9061  TIP3      H1             33.3323212922        2.5781836235       11.4822358414  W2        9061            0.0000000000
     27183      9061  TIP3      H2             33.5903512922        1.1259336235       11.8231858414  W2        9061            0.0000000000
     27184      9062  TIP3      OH2            21.2831412922       17.7268236235       11.2382358414  W2        9062            0.0000000000
     27185      9062  TIP3      H1             20.5981312922       17.6887136235       10.5707458414  W2        9062            0.0000000000
     27186      9062  TIP3      H2             21.2868612922       18.6395836235       11.5264458414  W2        9062            0.0000000000
     27187      9063  TIP3      OH2            23.2431012922        3.6947536235        8.7831358414  W2        9063            0.0000000000
     27188      9063  TIP3      H1             23.7344412922        3.0649936235        8.2556858414  W2        9063            0.0000000000
     27189      9063  TIP3      H2             23.8667312922        3.9906936235        9.4462558414  W2        9063            0.0000000000
     27190      9064  TIP3      OH2            28.2691112922        3.9879036235       11.2401858414  W2        9064            0.0000000000
     27191      9064  TIP3      H1             28.4472412922        3.3412236235       11.9230458414  W2        9064            0.0000000000
     27192      9064  TIP3      H2             28.2157312922        4.8216736235       11.7072958414  W2        9064            0.0000000000
     27193      9065  TIP3      OH2            30.1474912922       18.9363136235        9.6358558414  W2        9065            0.0000000000
     27194      9065  TIP3      H1             31.0135112922       19.3030536235        9.4576758414  W2        9065            0.0000000000
     27195      9065  TIP3      H2             29.9007712922       18.4971136235        8.8219358414  W2        9065            0.0000000000
     27196      9066  TIP3      OH2            22.5036512922        2.4949836235       24.0547358414  W2        9066            0.0000000000
     27197      9066  TIP3      H1             22.1374712922        1.7292436235       24.4972058414  W2        9066            0.0000000000
     27198      9066  TIP3      H2             23.4165012922        2.5240036235       24.3412458414  W2        9066            0.0000000000
     27199      9067  TIP3      OH2            24.4767312922        1.8454236235       25.5904458414  W2        9067            0.0000000000
     27200      9067  TIP3      H1             25.3750912922        1.5714436235       25.4057858414  W2        9067            0.0000000000
     27201      9067  TIP3      H2             24.0900412922        1.1030236235       26.0547058414  W2        9067            0.0000000000
     27202      9068  TIP3      OH2            23.1012612922       18.6469036235        8.2634458414  W2        9068            0.0000000000
     27203      9068  TIP3      H1             22.8337212922       18.9331936235        9.1367558414  W2        9068            0.0000000000
     27204      9068  TIP3      H2             23.8725212922       18.1008236235        8.4156958414  W2        9068            0.0000000000
     27205      9069  TIP3      OH2            32.8979612922        1.1779536235       25.7727258414  W2        9069            0.0000000000
     27206      9069  TIP3      H1             32.9746812922        0.7520236235       26.6264958414  W2        9069            0.0000000000
     27207      9069  TIP3      H2             33.7916212922        1.1914236235       25.4300758414  W2        9069            0.0000000000
     27208      9070  TIP3      OH2            36.0740712922       17.2505836235       24.4651458414  W2        9070            0.0000000000
     27209      9070  TIP3      H1             35.2922612922       17.0643836235       23.9452058414  W2        9070            0.0000000000
     27210      9070  TIP3      H2             36.0020612922       18.1800136235       24.6823958414  W2        9070            0.0000000000
     27211      9071  TIP3      OH2           -24.9438887078       29.9930236235       14.4958658414  W2        9071            0.0000000000
     27212      9071  TIP3      H1            -24.8547787078       30.9368436235       14.3635758414  W2        9071            0.0000000000
     27213      9071  TIP3      H2            -25.5821287078       29.7176636235       13.8378058414  W2        9071            0.0000000000
     27214      9072  TIP3      OH2           -26.0107587078       29.2480936235       17.9146858414  W2        9072            0.0000000000
     27215      9072  TIP3      H1            -26.0490087078       28.6017236235       18.6196458414  W2        9072            0.0000000000
     27216      9072  TIP3      H2            -26.3331087078       28.7815336235       17.1435558414  W2        9072            0.0000000000
     27217      9073  TIP3      OH2           -33.6422587078       28.8623036235       19.5076758414  W2        9073            0.0000000000
     27218      9073  TIP3      H1            -33.6010487078       28.2366336235       20.2309158414  W2        9073            0.0000000000
     27219      9073  TIP3      H2            -32.9394887078       29.4861636235       19.6897158414  W2        9073            0.0000000000
     27220      9074  TIP3      OH2           -22.3047387078       32.1871336235       16.2161958414  W2        9074            0.0000000000
     27221      9074  TIP3      H1            -22.7454687078       31.4667336235       16.6667558414  W2        9074            0.0000000000
     27222      9074  TIP3      H2            -22.3177687078       32.9078536235       16.8459658414  W2        9074            0.0000000000
     27223      9075  TIP3      OH2           -32.7189487078       33.3121936235       18.0425858414  W2        9075            0.0000000000
     27224      9075  TIP3      H1            -33.0884287078       32.5102436235       17.6730158414  W2        9075            0.0000000000
     27225      9075  TIP3      H2            -31.7778387078       33.1436836235       18.0889258414  W2        9075            0.0000000000
     27226      9076  TIP3      OH2           -36.1088987078       26.9724536235       13.4354658414  W2        9076            0.0000000000
     27227      9076  TIP3      H1            -36.5565587078       27.8183236235       13.4171158414  W2        9076            0.0000000000
     27228      9076  TIP3      H2            -36.6697787078       26.3928736235       12.9199758414  W2        9076            0.0000000000
     27229      9077  TIP3      OH2           -35.3982887078       29.1344136235       15.5612658414  W2        9077            0.0000000000
     27230      9077  TIP3      H1            -35.1849387078       28.3645736235       16.0885658414  W2        9077            0.0000000000
     27231      9077  TIP3      H2            -34.6605287078       29.2240836235       14.9580258414  W2        9077            0.0000000000
     27232      9078  TIP3      OH2           -27.6213187078       31.6802336235       18.3207858414  W2        9078            0.0000000000
     27233      9078  TIP3      H1            -27.3175287078       30.9943736235       17.7261958414  W2        9078            0.0000000000
     27234      9078  TIP3      H2            -26.8999187078       31.7991036235       18.9385858414  W2        9078            0.0000000000
     27235      9079  TIP3      OH2           -18.9583387078       23.2817636235       19.1814058414  W2        9079            0.0000000000
     27236      9079  TIP3      H1            -18.9091187078       23.8918836235       19.9173158414  W2        9079            0.0000000000
     27237      9079  TIP3      H2            -18.5328287078       23.7428536235       18.4585158414  W2        9079            0.0000000000
     27238      9080  TIP3      OH2           -24.4806187078       26.0744736235       18.6482658414  W2        9080            0.0000000000
     27239      9080  TIP3      H1            -24.3380287078       25.1281736235       18.6684258414  W2        9080            0.0000000000
     27240      9080  TIP3      H2            -24.5867187078       26.2814536235       17.7197558414  W2        9080            0.0000000000
     27241      9081  TIP3      OH2           -31.3257887078       24.1761136235       15.9207458414  W2        9081            0.0000000000
     27242      9081  TIP3      H1            -31.2826787078       25.0359636235       15.5023758414  W2        9081            0.0000000000
     27243      9081  TIP3      H2            -31.7833787078       23.6235836235       15.2870658414  W2        9081            0.0000000000
     27244      9082  TIP3      OH2           -23.6035187078       24.3066736235       14.3215758414  W2        9082            0.0000000000
     27245      9082  TIP3      H1            -22.9570887078       23.9779936235       14.9463358414  W2        9082            0.0000000000
     27246      9082  TIP3      H2            -23.0935787078       24.8245736235       13.6987158414  W2        9082            0.0000000000
     27247      9083  TIP3      OH2           -34.7056387078       26.5726936235       16.6828858414  W2        9083            0.0000000000
     27248      9083  TIP3      H1            -34.0519787078       26.0228636235       17.1148958414  W2        9083            0.0000000000
     27249      9083  TIP3      H2            -34.6817087078       26.2985936235       15.7660858414  W2        9083            0.0000000000
     27250      9084  TIP3      OH2           -29.5491887078       28.1228236235       15.8980358414  W2        9084            0.0000000000
     27251      9084  TIP3      H1            -28.9330887078       27.5963636235       16.4074358414  W2        9084            0.0000000000
     27252      9084  TIP3      H2            -30.1353087078       27.4826936235       15.4943958414  W2        9084            0.0000000000
     27253      9085  TIP3      OH2           -18.5668787078       24.7596836235       21.4173858414  W2        9085            0.0000000000
     27254      9085  TIP3      H1            -19.2554187078       25.4177536235       21.3220458414  W2        9085            0.0000000000
     27255      9085  TIP3      H2            -18.5514187078       24.5624736235       22.3539258414  W2        9085            0.0000000000
     27256      9086  TIP3      OH2           -32.5155987078       23.0939536235       19.9948258414  W2        9086            0.0000000000
     27257      9086  TIP3      H1            -32.7344287078       23.6240136235       19.2284258414  W2        9086            0.0000000000
     27258      9086  TIP3      H2            -33.1835087078       23.3205036235       20.6419658414  W2        9086            0.0000000000
     27259      9087  TIP3      OH2           -25.1466187078       32.5940636235       13.5387358414  W2        9087            0.0000000000
     27260      9087  TIP3      H1            -25.4421087078       32.2712936235       12.6874258414  W2        9087            0.0000000000
     27261      9087  TIP3      H2            -25.4708387078       33.4937336235       13.5799958414  W2        9087            0.0000000000
     27262      9088  TIP3      OH2           -29.9464587078       30.7695236235       20.2821958414  W2        9088            0.0000000000
     27263      9088  TIP3      H1            -30.6865487078       31.3676736235       20.3857158414  W2        9088            0.0000000000
     27264      9088  TIP3      H2            -29.2325087078       31.3234836235       19.9665558414  W2        9088            0.0000000000
     27265      9089  TIP3      OH2           -21.8396787078       23.5976036235       16.3021658414  W2        9089            0.0000000000
     27266      9089  TIP3      H1            -22.0548787078       22.8319436235       16.8347658414  W2        9089            0.0000000000
     27267      9089  TIP3      H2            -21.1839387078       24.0700636235       16.8150158414  W2        9089            0.0000000000
     27268      9090  TIP3      OH2           -32.9218687078       24.9861336235       17.9470458414  W2        9090            0.0000000000
     27269      9090  TIP3      H1            -32.3082387078       25.6188936235       18.3202858414  W2        9090            0.0000000000
     27270      9090  TIP3      H2            -32.4097987078       24.5136336235       17.2907358414  W2        9090            0.0000000000
     27271      9091  TIP3      OH2           -31.5390287078       32.7338236235       21.0693458414  W2        9091            0.0000000000
     27272      9091  TIP3      H1            -31.5442687078       33.6131736235       20.6912758414  W2        9091            0.0000000000
     27273      9091  TIP3      H2            -32.3926187078       32.6502336235       21.4943358414  W2        9091            0.0000000000
     27274      9092  TIP3      OH2           -35.4179387078       32.4046136235       11.8512758414  W2        9092            0.0000000000
     27275      9092  TIP3      H1            -35.6898487078       32.6337136235       10.9625658414  W2        9092            0.0000000000
     27276      9092  TIP3      H2            -35.3723687078       33.2424936235       12.3118058414  W2        9092            0.0000000000
     27277      9093  TIP3      OH2           -21.7929687078       34.0262036235       18.5641258414  W2        9093            0.0000000000
     27278      9093  TIP3      H1            -22.7345987078       34.0845936235       18.7258158414  W2        9093            0.0000000000
     27279      9093  TIP3      H2            -21.5163587078       34.9322536235       18.4270958414  W2        9093            0.0000000000
     27280      9094  TIP3      OH2           -21.4922687078       22.3127336235       19.9815158414  W2        9094            0.0000000000
     27281      9094  TIP3      H1            -22.2283487078       22.9234436235       19.9436458414  W2        9094            0.0000000000
     27282      9094  TIP3      H2            -20.8088687078       22.7276336235       19.4551558414  W2        9094            0.0000000000
     27283      9095  TIP3      OH2           -28.4891287078       20.3994636235       17.4473158414  W2        9095            0.0000000000
     27284      9095  TIP3      H1            -28.6067087078       19.4510636235       17.3931458414  W2        9095            0.0000000000
     27285      9095  TIP3      H2            -29.3441187078       20.7320736235       17.7204258414  W2        9095            0.0000000000
     27286      9096  TIP3      OH2           -23.5408487078       35.8075536235       15.1892858414  W2        9096            0.0000000000
     27287      9096  TIP3      H1            -23.1156187078       35.1003436235       14.7042458414  W2        9096            0.0000000000
     27288      9096  TIP3      H2            -23.2238487078       36.6088236235       14.7725058414  W2        9096            0.0000000000
     27289      9097  TIP3      OH2           -22.3811987078       33.7084036235       13.6979458414  W2        9097            0.0000000000
     27290      9097  TIP3      H1            -22.6387187078       33.0184136235       13.0865358414  W2        9097            0.0000000000
     27291      9097  TIP3      H2            -22.3101187078       33.2655236235       14.5435358414  W2        9097            0.0000000000
     27292      9098  TIP3      OH2           -20.6951787078       32.2750736235       22.1752958414  W2        9098            0.0000000000
     27293      9098  TIP3      H1            -20.5555487078       31.6833236235       21.4359958414  W2        9098            0.0000000000
     27294      9098  TIP3      H2            -20.5278987078       33.1476636235       21.8191758414  W2        9098            0.0000000000
     27295      9099  TIP3      OH2           -26.2226387078       29.2370236235       11.9478958414  W2        9099            0.0000000000
     27296      9099  TIP3      H1            -26.9340887078       29.7719936235       11.5959458414  W2        9099            0.0000000000
     27297      9099  TIP3      H2            -25.5316787078       29.2922336235       11.2877858414  W2        9099            0.0000000000
     27298      9100  TIP3      OH2           -26.1687187078       27.6944536235        8.9863958414  W2        9100            0.0000000000
     27299      9100  TIP3      H1            -25.4677287078       27.7171436235        9.6377958414  W2        9100            0.0000000000
     27300      9100  TIP3      H2            -25.8664287078       27.0664236235        8.3303258414  W2        9100            0.0000000000
     27301      9101  TIP3      OH2           -18.8532487078       28.6148736235       20.2413358414  W2        9101            0.0000000000
     27302      9101  TIP3      H1            -19.5058387078       29.3094336235       20.3304258414  W2        9101            0.0000000000
     27303      9101  TIP3      H2            -18.3882187078       28.8249636235       19.4314958414  W2        9101            0.0000000000
     27304      9102  TIP3      OH2           -22.8168687078       29.4463536235       12.8994858414  W2        9102            0.0000000000
     27305      9102  TIP3      H1            -23.5487687078       29.6747236235       13.4725458414  W2        9102            0.0000000000
     27306      9102  TIP3      H2            -22.3696487078       28.7326236235       13.3542358414  W2        9102            0.0000000000
     27307      9103  TIP3      OH2           -22.9195187078       27.6206136235       21.9671858414  W2        9103            0.0000000000
     27308      9103  TIP3      H1            -22.8396087078       28.3840536235       22.5390358414  W2        9103            0.0000000000
     27309      9103  TIP3      H2            -23.5207487078       27.8998536235       21.2766958414  W2        9103            0.0000000000
     27310      9104  TIP3      OH2           -31.1714987078       30.0769736235       14.7819858414  W2        9104            0.0000000000
     27311      9104  TIP3      H1            -31.5019787078       29.7063136235       13.9636858414  W2        9104            0.0000000000
     27312      9104  TIP3      H2            -30.5830887078       29.4063736235       15.1288158414  W2        9104            0.0000000000
     27313      9105  TIP3      OH2           -29.8047487078       33.5050336235       17.4632058414  W2        9105            0.0000000000
     27314      9105  TIP3      H1            -29.8996187078       32.9263436235       16.7066658414  W2        9105            0.0000000000
     27315      9105  TIP3      H2            -29.0753887078       33.1336036235       17.9594858414  W2        9105            0.0000000000
     27316      9106  TIP3      OH2           -30.8049487078       28.8455336235       18.4154858414  W2        9106            0.0000000000
     27317      9106  TIP3      H1            -30.2396987078       28.9669536235       17.6526058414  W2        9106            0.0000000000
     27318      9106  TIP3      H2            -30.4860587078       29.4830336235       19.0543358414  W2        9106            0.0000000000
     27319      9107  TIP3      OH2           -24.4957287078       34.3487236235       19.1495358414  W2        9107            0.0000000000
     27320      9107  TIP3      H1            -24.7360687078       35.0110336235       19.7974558414  W2        9107            0.0000000000
     27321      9107  TIP3      H2            -24.6939087078       33.5142436235       19.5744958414  W2        9107            0.0000000000
     27322      9108  TIP3      OH2           -29.9248787078       33.2448036235       23.1326758414  W2        9108            0.0000000000
     27323      9108  TIP3      H1            -30.2361287078       34.0271236235       23.5879958414  W2        9108            0.0000000000
     27324      9108  TIP3      H2            -30.5748587078       33.0917136235       22.4468758414  W2        9108            0.0000000000
     27325      9109  TIP3      OH2           -23.9459187078       28.6086436235       10.5846058414  W2        9109            0.0000000000
     27326      9109  TIP3      H1            -23.3663687078       28.7586736235       11.3314958414  W2        9109            0.0000000000
     27327      9109  TIP3      H2            -23.5319187078       29.0793836235        9.8612458414  W2        9109            0.0000000000
     27328      9110  TIP3      OH2           -33.0048887078       29.4429136235       22.3612458414  W2        9110            0.0000000000
     27329      9110  TIP3      H1            -32.9345687078       30.0935936235       23.0597458414  W2        9110            0.0000000000
     27330      9110  TIP3      H2            -33.8956687078       29.5456636235       22.0263358414  W2        9110            0.0000000000
     27331      9111  TIP3      OH2           -26.2194287078       35.3454936235       14.0199158414  W2        9111            0.0000000000
     27332      9111  TIP3      H1            -25.7456687078       35.6411236235       14.7973358414  W2        9111            0.0000000000
     27333      9111  TIP3      H2            -26.7824987078       36.0836536235       13.7868758414  W2        9111            0.0000000000
     27334      9112  TIP3      OH2           -31.6852887078       35.3163036235       23.8960558414  W2        9112            0.0000000000
     27335      9112  TIP3      H1            -31.6777587078       35.1802736235       22.9486058414  W2        9112            0.0000000000
     27336      9112  TIP3      H2            -32.6012487078       35.1991136235       24.1480558414  W2        9112            0.0000000000
     27337      9113  TIP3      OH2           -20.2470787078       20.3586836235       10.3975758414  W2        9113            0.0000000000
     27338      9113  TIP3      H1            -21.1470087078       20.4975836235       10.6926358414  W2        9113            0.0000000000
     27339      9113  TIP3      H2            -19.9952387078       21.1901436235        9.9957458414  W2        9113            0.0000000000
     27340      9114  TIP3      OH2           -32.1812287078       29.1464036235       12.3712658414  W2        9114            0.0000000000
     27341      9114  TIP3      H1            -32.4730987078       29.9145736235       11.8803958414  W2        9114            0.0000000000
     27342      9114  TIP3      H2            -32.8557087078       28.4870236235       12.2084058414  W2        9114            0.0000000000
     27343      9115  TIP3      OH2           -19.0579387078       34.7249236235        8.7739658414  W2        9115            0.0000000000
     27344      9115  TIP3      H1            -18.9845887078       35.6639436235        8.9444958414  W2        9115            0.0000000000
     27345      9115  TIP3      H2            -18.1524287078       34.4197836235        8.7176958414  W2        9115            0.0000000000
     27346      9116  TIP3      OH2           -36.0882187078       31.5093236235       21.1862458414  W2        9116            0.0000000000
     27347      9116  TIP3      H1            -36.5893787078       31.4812636235       20.3712158414  W2        9116            0.0000000000
     27348      9116  TIP3      H2            -36.0828487078       30.6036436235       21.4959758414  W2        9116            0.0000000000
     27349      9117  TIP3      OH2           -36.3379487078       34.2897036235       18.0702658414  W2        9117            0.0000000000
     27350      9117  TIP3      H1            -35.3918887078       34.1454036235       18.0512158414  W2        9117            0.0000000000
     27351      9117  TIP3      H2            -36.4503187078       35.0739836235       18.6073858414  W2        9117            0.0000000000
     27352      9118  TIP3      OH2           -18.1400987078       34.9556736235       23.7526358414  W2        9118            0.0000000000
     27353      9118  TIP3      H1            -18.1894187078       34.0004836235       23.7153958414  W2        9118            0.0000000000
     27354      9118  TIP3      H2            -18.9668687078       35.2232036235       24.1540158414  W2        9118            0.0000000000
     27355      9119  TIP3      OH2           -27.1616987078       34.5295936235       22.6287758414  W2        9119            0.0000000000
     27356      9119  TIP3      H1            -27.0742387078       35.3560536235       23.1036858414  W2        9119            0.0000000000
     27357      9119  TIP3      H2            -28.0251887078       34.1999736235       22.8777058414  W2        9119            0.0000000000
     27358      9120  TIP3      OH2           -20.9881187078       26.4489236235       24.2328558414  W2        9120            0.0000000000
     27359      9120  TIP3      H1            -21.3954387078       26.9294836235       23.5121858414  W2        9120            0.0000000000
     27360      9120  TIP3      H2            -20.9475487078       25.5435236235       23.9249358414  W2        9120            0.0000000000
     27361      9121  TIP3      OH2           -33.8391687078       32.8328636235       22.2295258414  W2        9121            0.0000000000
     27362      9121  TIP3      H1            -33.6230387078       32.4714236235       23.0891058414  W2        9121            0.0000000000
     27363      9121  TIP3      H2            -34.6946987078       32.4582436235       22.0198758414  W2        9121            0.0000000000
     27364      9122  TIP3      OH2           -31.2203687078       21.3029136235       18.2249458414  W2        9122            0.0000000000
     27365      9122  TIP3      H1            -32.0819987078       21.2157336235       17.8172358414  W2        9122            0.0000000000
     27366      9122  TIP3      H2            -31.2427987078       22.1589236235       18.6527058414  W2        9122            0.0000000000
     27367      9123  TIP3      OH2           -26.5575887078       21.0249536235       21.5996458414  W2        9123            0.0000000000
     27368      9123  TIP3      H1            -26.1372787078       20.6096636235       22.3527058414  W2        9123            0.0000000000
     27369      9123  TIP3      H2            -27.4906287078       20.8462836235       21.7168458414  W2        9123            0.0000000000
     27370      9124  TIP3      OH2           -23.2310987078       24.7804736235       22.4530958414  W2        9124            0.0000000000
     27371      9124  TIP3      H1            -23.7451487078       24.6546936235       23.2506958414  W2        9124            0.0000000000
     27372      9124  TIP3      H2            -23.3866287078       25.6927836235       22.2087158414  W2        9124            0.0000000000
     27373      9125  TIP3      OH2           -22.4686087078       29.6414736235        8.2143958414  W2        9125            0.0000000000
     27374      9125  TIP3      H1            -22.4265287078       29.4188636235        7.2843958414  W2        9125            0.0000000000
     27375      9125  TIP3      H2            -21.6193987078       30.0401836235        8.4043858414  W2        9125            0.0000000000
     27376      9126  TIP3      OH2           -26.8958587078       23.5172936235        8.8847258414  W2        9126            0.0000000000
     27377      9126  TIP3      H1            -27.1493787078       23.5364536235        9.8075358414  W2        9126            0.0000000000
     27378      9126  TIP3      H2            -27.1526487078       22.6458336235        8.5833458414  W2        9126            0.0000000000
     27379      9127  TIP3      OH2           -31.1293587078       26.2683636235       19.3199658414  W2        9127            0.0000000000
     27380      9127  TIP3      H1            -31.7711487078       26.2280936235       20.0289758414  W2        9127            0.0000000000
     27381      9127  TIP3      H2            -31.0921587078       27.1948336235       19.0822658414  W2        9127            0.0000000000
     27382      9128  TIP3      OH2           -31.1324487078       26.4893736235       14.2319658414  W2        9128            0.0000000000
     27383      9128  TIP3      H1            -32.0251587078       26.1489836235       14.1733458414  W2        9128            0.0000000000
     27384      9128  TIP3      H2            -30.6817887078       26.1124636235       13.4762858414  W2        9128            0.0000000000
     27385      9129  TIP3      OH2           -25.5968987078       26.9054036235       13.0490458414  W2        9129            0.0000000000
     27386      9129  TIP3      H1            -26.0058687078       27.7202636235       12.7575258414  W2        9129            0.0000000000
     27387      9129  TIP3      H2            -24.8762787078       26.7654136235       12.4347558414  W2        9129            0.0000000000
     27388      9130  TIP3      OH2           -26.4947387078       27.0810436235       24.5371158414  W2        9130            0.0000000000
     27389      9130  TIP3      H1            -27.0573587078       26.3762036235       24.8578958414  W2        9130            0.0000000000
     27390      9130  TIP3      H2            -25.6683987078       26.9602336235       25.0048758414  W2        9130            0.0000000000
     27391      9131  TIP3      OH2           -24.5921287078       26.3514436235       15.8630158414  W2        9131            0.0000000000
     27392      9131  TIP3      H1            -24.7876787078       26.9571236235       15.1480758414  W2        9131            0.0000000000
     27393      9131  TIP3      H2            -24.4108687078       25.5179636235       15.4286458414  W2        9131            0.0000000000
     27394      9132  TIP3      OH2           -33.3793087078       26.5887136235       21.1871658414  W2        9132            0.0000000000
     27395      9132  TIP3      H1            -33.4173687078       26.9888736235       22.0558758414  W2        9132            0.0000000000
     27396      9132  TIP3      H2            -33.8701987078       25.7719536235       21.2774558414  W2        9132            0.0000000000
     27397      9133  TIP3      OH2           -30.0135687078       23.9629436235        7.9857658414  W2        9133            0.0000000000
     27398      9133  TIP3      H1            -30.4444987078       23.5179536235        8.7155058414  W2        9133            0.0000000000
     27399      9133  TIP3      H2            -30.7316987078       24.3345736235        7.4735158414  W2        9133            0.0000000000
     27400      9134  TIP3      OH2           -36.7712287078       23.7048936235       15.0376358414  W2        9134            0.0000000000
     27401      9134  TIP3      H1            -36.1404587078       23.6761036235       15.7570258414  W2        9134            0.0000000000
     27402      9134  TIP3      H2            -36.3217987078       23.2797636235       14.3072258414  W2        9134            0.0000000000
     27403      9135  TIP3      OH2           -35.4970187078       24.4510936235       10.4616758414  W2        9135            0.0000000000
     27404      9135  TIP3      H1            -35.0228487078       25.0420836235        9.8767658414  W2        9135            0.0000000000
     27405      9135  TIP3      H2            -36.2143787078       24.9813836235       10.8086858414  W2        9135            0.0000000000
     27406      9136  TIP3      OH2           -25.3282087078       27.9895736235       20.5342558414  W2        9136            0.0000000000
     27407      9136  TIP3      H1            -25.0047287078       27.3585436235       19.8913058414  W2        9136            0.0000000000
     27408      9136  TIP3      H2            -25.7682787078       27.4547936235       21.1949958414  W2        9136            0.0000000000
     27409      9137  TIP3      OH2           -28.5509187078       23.9171236235       15.3183758414  W2        9137            0.0000000000
     27410      9137  TIP3      H1            -29.4618087078       23.9738036235       15.6069758414  W2        9137            0.0000000000
     27411      9137  TIP3      H2            -28.0456287078       23.8566736235       16.1290958414  W2        9137            0.0000000000
     27412      9138  TIP3      OH2           -33.7225787078       25.5457536235       14.1451358414  W2        9138            0.0000000000
     27413      9138  TIP3      H1            -34.6117787078       25.6453036235       13.8050958414  W2        9138            0.0000000000
     27414      9138  TIP3      H2            -33.4260887078       24.7040536235       13.7989258414  W2        9138            0.0000000000
     27415      9139  TIP3      OH2           -30.0693987078       25.5460136235       11.8015958414  W2        9139            0.0000000000
     27416      9139  TIP3      H1            -29.1378487078       25.6750136235       11.9799058414  W2        9139            0.0000000000
     27417      9139  TIP3      H2            -30.2843687078       26.2154436235       11.1520658414  W2        9139            0.0000000000
     27418      9140  TIP3      OH2           -24.1457287078       23.1517536235       18.5825558414  W2        9140            0.0000000000
     27419      9140  TIP3      H1            -24.8225687078       23.2830636235       19.2465258414  W2        9140            0.0000000000
     27420      9140  TIP3      H2            -24.6312387078       22.9967036235       17.7723258414  W2        9140            0.0000000000
     27421      9141  TIP3      OH2           -31.3953787078       26.7402336235        9.3682058414  W2        9141            0.0000000000
     27422      9141  TIP3      H1            -31.9378687078       26.3606136235        8.6769658414  W2        9141            0.0000000000
     27423      9141  TIP3      H2            -30.5618887078       26.9347036235        8.9396158414  W2        9141            0.0000000000
     27424      9142  TIP3      OH2           -33.2602387078       31.2974236235       24.4673658414  W2        9142            0.0000000000
     27425      9142  TIP3      H1            -32.5279987078       31.5520136235       25.0288158414  W2        9142            0.0000000000
     27426      9142  TIP3      H2            -34.0403687078       31.5019636235       24.9829058414  W2        9142            0.0000000000
     27427      9143  TIP3      OH2           -27.2309487078       26.7044236235       17.2053358414  W2        9143            0.0000000000
     27428      9143  TIP3      H1            -26.6666087078       26.1580836235       16.6582958414  W2        9143            0.0000000000
     27429      9143  TIP3      H2            -27.3786087078       26.1826136235       17.9940958414  W2        9143            0.0000000000
     27430      9144  TIP3      OH2           -32.2289787078       22.8410336235       13.6238158414  W2        9144            0.0000000000
     27431      9144  TIP3      H1            -32.5460287078       21.9385636235       13.5883558414  W2        9144            0.0000000000
     27432      9144  TIP3      H2            -31.4475687078       22.8427736235       13.0709758414  W2        9144            0.0000000000
     27433      9145  TIP3      OH2           -28.6043587078       25.0930336235       19.6193758414  W2        9145            0.0000000000
     27434      9145  TIP3      H1            -29.4398287078       25.5469836235       19.7296158414  W2        9145            0.0000000000
     27435      9145  TIP3      H2            -28.0802987078       25.3688836235       20.3713658414  W2        9145            0.0000000000
     27436      9146  TIP3      OH2           -28.0600987078       31.3058036235       11.3040158414  W2        9146            0.0000000000
     27437      9146  TIP3      H1            -28.8049987078       30.7983336235       10.9818058414  W2        9146            0.0000000000
     27438      9146  TIP3      H2            -28.1943787078       31.3546036235       12.2504958414  W2        9146            0.0000000000
     27439      9147  TIP3      OH2           -20.9102087078       30.4386236235       20.0907758414  W2        9147            0.0000000000
     27440      9147  TIP3      H1            -20.2683287078       30.8952536235       19.5469958414  W2        9147            0.0000000000
     27441      9147  TIP3      H2            -21.7405187078       30.5518636235       19.6281858414  W2        9147            0.0000000000
     27442      9148  TIP3      OH2           -24.1624187078       24.1197936235        9.5032758414  W2        9148            0.0000000000
     27443      9148  TIP3      H1            -25.1009987078       24.2313536235        9.3521558414  W2        9148            0.0000000000
     27444      9148  TIP3      H2            -23.8652087078       24.9764836235        9.8098458414  W2        9148            0.0000000000
     27445      9149  TIP3      OH2           -26.5408887078       31.4901336235       22.5409258414  W2        9149            0.0000000000
     27446      9149  TIP3      H1            -26.8862787078       31.1083736235       23.3478858414  W2        9149            0.0000000000
     27447      9149  TIP3      H2            -26.7408787078       32.4234936235       22.6122158414  W2        9149            0.0000000000
     27448      9150  TIP3      OH2           -23.4440687078       25.9870636235       11.1640158414  W2        9150            0.0000000000
     27449      9150  TIP3      H1            -22.5521687078       25.8495636235       11.4831358414  W2        9150            0.0000000000
     27450      9150  TIP3      H2            -23.3877087078       26.7776736235       10.6273658414  W2        9150            0.0000000000
     27451      9151  TIP3      OH2           -32.9352687078       30.6008036235       17.0738058414  W2        9151            0.0000000000
     27452      9151  TIP3      H1            -32.1905487078       30.5983736235       16.4724558414  W2        9151            0.0000000000
     27453      9151  TIP3      H2            -32.8576087078       29.7771836235       17.5553158414  W2        9151            0.0000000000
     27454      9152  TIP3      OH2           -25.9346887078       32.7642336235       10.3294758414  W2        9152            0.0000000000
     27455      9152  TIP3      H1            -26.2298487078       33.5910236235       10.7109558414  W2        9152            0.0000000000
     27456      9152  TIP3      H2            -26.6376887078       32.1449236235       10.5256158414  W2        9152            0.0000000000
     27457      9153  TIP3      OH2           -35.9272987078       29.0614936235       22.3886558414  W2        9153            0.0000000000
     27458      9153  TIP3      H1            -35.7044387078       28.6434536235       23.2204058414  W2        9153            0.0000000000
     27459      9153  TIP3      H2            -36.5292887078       28.4489936235       21.9659358414  W2        9153            0.0000000000
     27460      9154  TIP3      OH2           -28.9108087078       28.5784836235       24.6016258414  W2        9154            0.0000000000
     27461      9154  TIP3      H1            -29.2067287078       28.4127836235       23.7065358414  W2        9154            0.0000000000
     27462      9154  TIP3      H2            -27.9792887078       28.3585136235       24.5910158414  W2        9154            0.0000000000
     27463      9155  TIP3      OH2           -24.2905287078       33.9516836235       22.4914258414  W2        9155            0.0000000000
     27464      9155  TIP3      H1            -25.1910987078       34.1349436235       22.2238158414  W2        9155            0.0000000000
     27465      9155  TIP3      H2            -24.2564187078       34.2106136235       23.4123058414  W2        9155            0.0000000000
     27466      9156  TIP3      OH2           -18.5591987078       26.1964736235       10.8586858414  W2        9156            0.0000000000
     27467      9156  TIP3      H1            -19.1135687078       25.8002736235       10.1864358414  W2        9156            0.0000000000
     27468      9156  TIP3      H2            -18.4588387078       27.1069936235       10.5810158414  W2        9156            0.0000000000
     27469      9157  TIP3      OH2           -18.5959987078       31.9966436235       23.6958358414  W2        9157            0.0000000000
     27470      9157  TIP3      H1            -19.4471487078       32.2350236235       23.3284758414  W2        9157            0.0000000000
     27471      9157  TIP3      H2            -18.0056587078       31.9799636235       22.9425458414  W2        9157            0.0000000000
     27472      9158  TIP3      OH2           -20.2640287078       34.9825136235       11.3238958414  W2        9158            0.0000000000
     27473      9158  TIP3      H1            -20.6369187078       34.1568936235       11.6329558414  W2        9158            0.0000000000
     27474      9158  TIP3      H2            -19.9866787078       34.7994536235       10.4262358414  W2        9158            0.0000000000
     27475      9159  TIP3      OH2           -23.1036387078       29.7904636235       18.3450858414  W2        9159            0.0000000000
     27476      9159  TIP3      H1            -24.0319487078       29.5586536235       18.3180158414  W2        9159            0.0000000000
     27477      9159  TIP3      H2            -22.6525287078       29.0134436235       18.0149658414  W2        9159            0.0000000000
     27478      9160  TIP3      OH2           -30.5603287078       34.1186236235       14.4779558414  W2        9160            0.0000000000
     27479      9160  TIP3      H1            -30.0331087078       34.8920636235       14.2778358414  W2        9160            0.0000000000
     27480      9160  TIP3      H2            -31.4404787078       34.3435436235       14.1763558414  W2        9160            0.0000000000
     27481      9161  TIP3      OH2           -34.8055587078       28.9810336235        9.0651958414  W2        9161            0.0000000000
     27482      9161  TIP3      H1            -34.1895687078       29.6077536235        9.4446758414  W2        9161            0.0000000000
     27483      9161  TIP3      H2            -35.6672987078       29.2970136235        9.3368458414  W2        9161            0.0000000000
     27484      9162  TIP3      OH2           -29.1330987078       31.7816136235       14.0543858414  W2        9162            0.0000000000
     27485      9162  TIP3      H1            -29.3740987078       32.7070536235       14.0959158414  W2        9162            0.0000000000
     27486      9162  TIP3      H2            -29.8737387078       31.3227436235       14.4507758414  W2        9162            0.0000000000
     27487      9163  TIP3      OH2           -28.6184387078       35.9309736235       20.3694958414  W2        9163            0.0000000000
     27488      9163  TIP3      H1            -28.2559687078       36.7855336235       20.1359358414  W2        9163            0.0000000000
     27489      9163  TIP3      H2            -28.0869187078       35.6391336235       21.1101258414  W2        9163            0.0000000000
     27490      9164  TIP3      OH2           -30.4500187078       36.8033736235       13.5996058414  W2        9164            0.0000000000
     27491      9164  TIP3      H1            -31.3999687078       36.9091136235       13.6509358414  W2        9164            0.0000000000
     27492      9164  TIP3      H2            -30.0982087078       37.6241136235       13.9443558414  W2        9164            0.0000000000
     27493      9165  TIP3      OH2           -25.0743587078       32.0300436235       20.0700558414  W2        9165            0.0000000000
     27494      9165  TIP3      H1            -25.5002287078       31.8022136235       20.8964558414  W2        9165            0.0000000000
     27495      9165  TIP3      H2            -24.4937787078       31.2912236235       19.8875858414  W2        9165            0.0000000000
     27496      9166  TIP3      OH2           -22.8714687078       32.9590936235        9.1439558414  W2        9166            0.0000000000
     27497      9166  TIP3      H1            -22.5181587078       32.5790736235        9.9483058414  W2        9166            0.0000000000
     27498      9166  TIP3      H2            -23.8201187078       32.8655736235        9.2308858414  W2        9166            0.0000000000
     27499      9167  TIP3      OH2           -22.4159387078       36.5819936235       22.5395358414  W2        9167            0.0000000000
     27500      9167  TIP3      H1            -23.0176187078       36.0262836235       22.0441658414  W2        9167            0.0000000000
     27501      9167  TIP3      H2            -22.1345687078       37.2489736235       21.9132758414  W2        9167            0.0000000000
     27502      9168  TIP3      OH2           -34.2933487078       23.8147636235       21.9467958414  W2        9168            0.0000000000
     27503      9168  TIP3      H1            -35.1861187078       24.1533036235       21.8791958414  W2        9168            0.0000000000
     27504      9168  TIP3      H2            -34.3920687078       22.9593736235       22.3648758414  W2        9168            0.0000000000
     27505      9169  TIP3      OH2           -22.0055387078       31.6312936235       11.3707458414  W2        9169            0.0000000000
     27506      9169  TIP3      H1            -22.2827787078       30.9032236235       11.9268558414  W2        9169            0.0000000000
     27507      9169  TIP3      H2            -21.0782387078       31.7504936235       11.5760058414  W2        9169            0.0000000000
     27508      9170  TIP3      OH2           -34.6421487078       35.6192036235       20.3817358414  W2        9170            0.0000000000
     27509      9170  TIP3      H1            -34.4251187078       34.6874436235       20.3507058414  W2        9170            0.0000000000
     27510      9170  TIP3      H2            -34.3957987078       35.8937036235       21.2650158414  W2        9170            0.0000000000
     27511      9171  TIP3      OH2           -28.7806887078       34.0707036235        7.5909558414  W2        9171            0.0000000000
     27512      9171  TIP3      H1            -28.5417087078       33.3225136235        7.0438458414  W2        9171            0.0000000000
     27513      9171  TIP3      H2            -29.0495587078       33.6828736235        8.4237358414  W2        9171            0.0000000000
     27514      9172  TIP3      OH2           -29.8436287078       33.6410836235       10.0472158414  W2        9172            0.0000000000
     27515      9172  TIP3      H1            -29.6968287078       33.1210636235       10.8373058414  W2        9172            0.0000000000
     27516      9172  TIP3      H2            -29.8464587078       34.5478436235       10.3538058414  W2        9172            0.0000000000
     27517      9173  TIP3      OH2           -33.3905187078       30.8934136235       10.5577558414  W2        9173            0.0000000000
     27518      9173  TIP3      H1            -34.0765887078       31.2456636235       11.1247258414  W2        9173            0.0000000000
     27519      9173  TIP3      H2            -32.8677287078       31.6563736235       10.3111858414  W2        9173            0.0000000000
     27520      9174  TIP3      OH2           -25.5590087078       23.5557936235       20.8366558414  W2        9174            0.0000000000
     27521      9174  TIP3      H1            -24.8602187078       23.6296636235       21.4866258414  W2        9174            0.0000000000
     27522      9174  TIP3      H2            -25.9398687078       22.6912936235       20.9909458414  W2        9174            0.0000000000
     27523      9175  TIP3      OH2           -24.7745187078       23.2079636235       11.9338858414  W2        9175            0.0000000000
     27524      9175  TIP3      H1            -24.5546887078       23.6795036235       11.1304258414  W2        9175            0.0000000000
     27525      9175  TIP3      H2            -24.2161187078       23.6022236235       12.6039458414  W2        9175            0.0000000000
     27526      9176  TIP3      OH2           -27.1059087078       35.3384436235       10.7966358414  W2        9176            0.0000000000
     27527      9176  TIP3      H1            -27.9222987078       35.8354136235       10.8490658414  W2        9176            0.0000000000
     27528      9176  TIP3      H2            -26.5762787078       35.8137936235       10.1565158414  W2        9176            0.0000000000
     27529      9177  TIP3      OH2           -27.5745287078       24.9358436235       12.7687258414  W2        9177            0.0000000000
     27530      9177  TIP3      H1            -26.7622687078       25.4401636235       12.8148958414  W2        9177            0.0000000000
     27531      9177  TIP3      H2            -27.8192287078       24.7908136235       13.6826858414  W2        9177            0.0000000000
     27532      9178  TIP3      OH2           -27.0388887078       25.9221136235       21.9533858414  W2        9178            0.0000000000
     27533      9178  TIP3      H1            -26.9198587078       26.4956536235       22.7104258414  W2        9178            0.0000000000
     27534      9178  TIP3      H2            -26.3834287078       25.2340536235       22.0681658414  W2        9178            0.0000000000
     27535      9179  TIP3      OH2           -26.6908587078       22.0171436235       13.7068358414  W2        9179            0.0000000000
     27536      9179  TIP3      H1            -27.0375087078       22.6342036235       14.3512658414  W2        9179            0.0000000000
     27537      9179  TIP3      H2            -26.0321687078       22.5177136235       13.2253858414  W2        9179            0.0000000000
     27538      9180  TIP3      OH2           -29.7675987078       36.3821636235       10.7783258414  W2        9180            0.0000000000
     27539      9180  TIP3      H1            -29.6067287078       37.1819136235       10.2775858414  W2        9180            0.0000000000
     27540      9180  TIP3      H2            -29.9648187078       36.6887636235       11.6633858414  W2        9180            0.0000000000
     27541      9181  TIP3      OH2           -31.0331587078       23.0800836235       10.3940858414  W2        9181            0.0000000000
     27542      9181  TIP3      H1            -31.1166787078       23.9683936235       10.7407258414  W2        9181            0.0000000000
     27543      9181  TIP3      H2            -30.1431287078       22.8147536235       10.6257658414  W2        9181            0.0000000000
     27544      9182  TIP3      OH2           -20.8343087078       23.8291436235       22.7883558414  W2        9182            0.0000000000
     27545      9182  TIP3      H1            -21.7507287078       24.0913136235       22.7007258414  W2        9182            0.0000000000
     27546      9182  TIP3      H2            -20.4988087078       23.8260436235       21.8918858414  W2        9182            0.0000000000
     27547      9183  TIP3      OH2           -22.2322087078       27.5792436235       16.8840858414  W2        9183            0.0000000000
     27548      9183  TIP3      H1            -23.0297687078       27.1642636235       16.5555858414  W2        9183            0.0000000000
     27549      9183  TIP3      H2            -21.7870987078       26.8886136235       17.3751358414  W2        9183            0.0000000000
     27550      9184  TIP3      OH2           -32.7746287078       33.5073036235        9.4545358414  W2        9184            0.0000000000
     27551      9184  TIP3      H1            -32.1824787078       34.2067836235        9.7307758414  W2        9184            0.0000000000
     27552      9184  TIP3      H2            -32.3153287078       33.0742536235        8.7349958414  W2        9184            0.0000000000
     27553      9185  TIP3      OH2           -34.4587087078       26.1716036235        8.5704758414  W2        9185            0.0000000000
     27554      9185  TIP3      H1            -34.5034487078       27.1109136235        8.7491758414  W2        9185            0.0000000000
     27555      9185  TIP3      H2            -35.3463887078       25.9360936235        8.3006858414  W2        9185            0.0000000000
     27556      9186  TIP3      OH2           -33.6505087078       20.9532636235       17.2435758414  W2        9186            0.0000000000
     27557      9186  TIP3      H1            -33.8795287078       21.0125136235       16.3160758414  W2        9186            0.0000000000
     27558      9186  TIP3      H2            -34.0931687078       20.1618136235       17.5499858414  W2        9186            0.0000000000
     27559      9187  TIP3      OH2           -34.7201787078       34.8939736235       13.4041558414  W2        9187            0.0000000000
     27560      9187  TIP3      H1            -35.5523187078       35.3662436235       13.4312958414  W2        9187            0.0000000000
     27561      9187  TIP3      H2            -34.1743487078       35.4037336235       12.8054658414  W2        9187            0.0000000000
     27562      9188  TIP3      OH2           -30.8344687078       36.4257836235       26.3543758414  W2        9188            0.0000000000
     27563      9188  TIP3      H1            -30.0667487078       35.9668636235       26.6952958414  W2        9188            0.0000000000
     27564      9188  TIP3      H2            -30.8558487078       36.1997636235       25.4244958414  W2        9188            0.0000000000
     27565      9189  TIP3      OH2           -26.7425087078       35.9338436235        7.7295558414  W2        9189            0.0000000000
     27566      9189  TIP3      H1            -27.3864087078       35.3027036235        8.0509258414  W2        9189            0.0000000000
     27567      9189  TIP3      H2            -25.9806787078       35.4026436235        7.4979058414  W2        9189            0.0000000000
     27568      9190  TIP3      OH2           -24.2575987078       34.8058936235       25.0835258414  W2        9190            0.0000000000
     27569      9190  TIP3      H1            -24.6086487078       33.9491936235       25.3265658414  W2        9190            0.0000000000
     27570      9190  TIP3      H2            -23.5312787078       34.9485636235       25.6904258414  W2        9190            0.0000000000
     27571      9191  TIP3      OH2           -22.1382187078       35.7508336235        7.9633558414  W2        9191            0.0000000000
     27572      9191  TIP3      H1            -21.8551787078       34.9563536235        8.4160458414  W2        9191            0.0000000000
     27573      9191  TIP3      H2            -21.3984287078       35.9839336235        7.4024658414  W2        9191            0.0000000000
     27574      9192  TIP3      OH2           -35.5248587078       31.3167536235       25.6883858414  W2        9192            0.0000000000
     27575      9192  TIP3      H1            -35.3808087078       30.4148236235       25.4020558414  W2        9192            0.0000000000
     27576      9192  TIP3      H2            -36.2971187078       31.6029636235       25.2006158414  W2        9192            0.0000000000
     27577      9193  TIP3      OH2           -31.1834887078       31.6603236235        7.8208458414  W2        9193            0.0000000000
     27578      9193  TIP3      H1            -31.1190787078       30.8662836235        8.3514858414  W2        9193            0.0000000000
     27579      9193  TIP3      H2            -30.5305687078       31.5416036235        7.1310458414  W2        9193            0.0000000000
     27580      9194  TIP3      OH2           -28.8692487078       31.2865636235       25.1210258414  W2        9194            0.0000000000
     27581      9194  TIP3      H1            -29.1978687078       31.5573736235       24.2637658414  W2        9194            0.0000000000
     27582      9194  TIP3      H2            -28.7174287078       30.3455436235       25.0335258414  W2        9194            0.0000000000
     27583      9195  TIP3      OH2           -25.8311487078       32.7074936235        7.5566458414  W2        9195            0.0000000000
     27584      9195  TIP3      H1            -26.0997387078       32.8877036235        8.4575358414  W2        9195            0.0000000000
     27585      9195  TIP3      H2            -26.0375887078       31.7821136235        7.4252258414  W2        9195            0.0000000000
     27586      9196  TIP3      OH2           -23.1347287078       31.2022936235       22.5042558414  W2        9196            0.0000000000
     27587      9196  TIP3      H1            -22.3892487078       31.7906636235       22.3846558414  W2        9196            0.0000000000
     27588      9196  TIP3      H2            -23.8920487078       31.7842636235       22.5675658414  W2        9196            0.0000000000
     27589      9197  TIP3      OH2           -34.6922087078       28.5170836235       25.1083158414  W2        9197            0.0000000000
     27590      9197  TIP3      H1            -34.2840887078       27.6597436235       24.9873758414  W2        9197            0.0000000000
     27591      9197  TIP3      H2            -34.9524487078       28.5312136235       26.0293458414  W2        9197            0.0000000000
     27592      9198  TIP3      OH2           -30.0341087078       29.6329436235       10.1266458414  W2        9198            0.0000000000
     27593      9198  TIP3      H1            -30.4939087078       29.1487736235       10.8124958414  W2        9198            0.0000000000
     27594      9198  TIP3      H2            -29.7792387078       28.9644836235        9.4906958414  W2        9198            0.0000000000
     27595      9199  TIP3      OH2           -30.7451787078       27.5256536235       22.4826058414  W2        9199            0.0000000000
     27596      9199  TIP3      H1            -31.3635687078       28.2003136235       22.7630758414  W2        9199            0.0000000000
     27597      9199  TIP3      H2            -30.4010587078       27.8470436235       21.6492258414  W2        9199            0.0000000000
     27598      9200  TIP3      OH2           -28.9630687078       27.8761236235        8.3889658414  W2        9200            0.0000000000
     27599      9200  TIP3      H1            -29.1435687078       27.7212436235        7.4617958414  W2        9200            0.0000000000
     27600      9200  TIP3      H2            -28.0130187078       27.9839936235        8.4337558414  W2        9200            0.0000000000
     27601      9201  TIP3      OH2           -25.7253587078       29.9971836235       25.7600858414  W2        9201            0.0000000000
     27602      9201  TIP3      H1            -24.7722387078       30.0810936235       25.7326858414  W2        9201            0.0000000000
     27603      9201  TIP3      H2            -25.8858987078       29.2853636235       26.3795758414  W2        9201            0.0000000000
     27604      9202  TIP3      OH2           -19.5732387078       30.2305436235        7.8347758414  W2        9202            0.0000000000
     27605      9202  TIP3      H1            -19.8467587078       29.8060936235        7.0216058414  W2        9202            0.0000000000
     27606      9202  TIP3      H2            -19.5338287078       31.1619936235        7.6178158414  W2        9202            0.0000000000
     27607      9203  TIP3      OH2           -30.4058087078       24.8807336235       23.5649158414  W2        9203            0.0000000000
     27608      9203  TIP3      H1            -30.2557187078       24.1518636235       22.9628858414  W2        9203            0.0000000000
     27609      9203  TIP3      H2            -30.4035687078       25.6579036235       23.0061358414  W2        9203            0.0000000000
     27610      9204  TIP3      OH2           -29.9932387078       23.2503136235       21.0576558414  W2        9204            0.0000000000
     27611      9204  TIP3      H1            -29.4574887078       23.7019836235       20.4055858414  W2        9204            0.0000000000
     27612      9204  TIP3      H2            -30.8452787078       23.1422936235       20.6350658414  W2        9204            0.0000000000
     27613      9205  TIP3      OH2           -28.4113987078       28.6899336235       21.2971758414  W2        9205            0.0000000000
     27614      9205  TIP3      H1            -27.6609187078       28.5336836235       20.7239558414  W2        9205            0.0000000000
     27615      9205  TIP3      H2            -28.7505687078       29.5415936235       21.0217258414  W2        9205            0.0000000000
     27616      9206  TIP3      OH2           -23.9957787078       26.5051136235       26.3257058414  W2        9206            0.0000000000
     27617      9206  TIP3      H1            -23.8036487078       25.5740536235       26.2141558414  W2        9206            0.0000000000
     27618      9206  TIP3      H2            -23.1381487078       26.9300636235       26.3152458414  W2        9206            0.0000000000
     27619      9207  TIP3      OH2           -22.6790587078       29.2936336235       24.4029758414  W2        9207            0.0000000000
     27620      9207  TIP3      H1            -22.9605587078       30.0030936235       23.8253558414  W2        9207            0.0000000000
     27621      9207  TIP3      H2            -21.7366287078       29.2209336235       24.2520958414  W2        9207            0.0000000000
     27622      9208  TIP3      OH2           -31.9271787078       26.0790836235       25.4764758414  W2        9208            0.0000000000
     27623      9208  TIP3      H1            -32.6942787078       25.5465636235       25.2662358414  W2        9208            0.0000000000
     27624      9208  TIP3      H2            -31.2482787078       25.7691236235       24.8771058414  W2        9208            0.0000000000
     27625      9209  TIP3      OH2           -29.1876887078       20.7068836235       21.4890158414  W2        9209            0.0000000000
     27626      9209  TIP3      H1            -29.2857287078       21.6532036235       21.3836358414  W2        9209            0.0000000000
     27627      9209  TIP3      H2            -29.9300687078       20.3342636235       21.0133658414  W2        9209            0.0000000000
     27628      9210  TIP3      OH2           -27.9236387078       25.0284236235       25.0528558414  W2        9210            0.0000000000
     27629      9210  TIP3      H1            -28.1590987078       24.8090936235       25.9543458414  W2        9210            0.0000000000
     27630      9210  TIP3      H2            -28.7069487078       24.8215436235       24.5431058414  W2        9210            0.0000000000
     27631      9211  TIP3      OH2           -25.2079787078       24.1557736235       24.1282058414  W2        9211            0.0000000000
     27632      9211  TIP3      H1            -26.1554387078       24.1877436235       24.2605358414  W2        9211            0.0000000000
     27633      9211  TIP3      H2            -24.8953087078       23.5304836235       24.7820258414  W2        9211            0.0000000000
     27634      9212  TIP3      OH2           -23.5738287078       22.7898836235       26.1333958414  W2        9212            0.0000000000
     27635      9212  TIP3      H1            -23.6706487078       21.8376136235       26.1275858414  W2        9212            0.0000000000
     27636      9212  TIP3      H2            -23.8955187078       23.0585636235       26.9939458414  W2        9212            0.0000000000
     27637      9213  TIP3      OH2           -33.7468987078       23.9994636235       25.1809458414  W2        9213            0.0000000000
     27638      9213  TIP3      H1            -33.5351587078       23.2930736235       24.5706958414  W2        9213            0.0000000000
     27639      9213  TIP3      H2            -33.8581487078       23.5620636235       26.0250658414  W2        9213            0.0000000000
     27640      9214  TIP3      OH2           -28.9658787078       20.0006236235       24.1602958414  W2        9214            0.0000000000
     27641      9214  TIP3      H1            -28.2540387078       19.3608436235       24.1462058414  W2        9214            0.0000000000
     27642      9214  TIP3      H2            -29.0668387078       20.2674536235       23.2466058414  W2        9214            0.0000000000
     27643      9215  TIP3      OH2           -28.6121287078       21.6834636235       26.2139258414  W2        9215            0.0000000000
     27644      9215  TIP3      H1            -28.7439087078       21.2078436235       25.3937758414  W2        9215            0.0000000000
     27645      9215  TIP3      H2            -29.2113887078       22.4278236235       26.1586358414  W2        9215            0.0000000000
     27646      9216  TIP3      OH2           -35.4974087078       33.2028736235        8.8731358414  W2        9216            0.0000000000
     27647      9216  TIP3      H1            -34.5834887078       33.2817636235        9.1465258414  W2        9216            0.0000000000
     27648      9216  TIP3      H2            -35.4900987078       32.5158336235        8.2066958414  W2        9216            0.0000000000
     27649      9217  TIP3      OH2           -35.9784287078       36.6764236235       15.7551458414  W2        9217            0.0000000000
     27650      9217  TIP3      H1            -36.3127487078       35.7961536235       15.9271658414  W2        9217            0.0000000000
     27651      9217  TIP3      H2            -35.7561887078       37.0219236235       16.6197058414  W2        9217            0.0000000000
     27652      9218  TIP3      OH2           -20.4159287078       32.8429836235       26.2955658414  W2        9218            0.0000000000
     27653      9218  TIP3      H1            -21.2818187078       32.7379536235       26.6897958414  W2        9218            0.0000000000
     27654      9218  TIP3      H2            -20.0393387078       33.6013136235       26.7420358414  W2        9218            0.0000000000
     27655      9219  TIP3      OH2           -19.1149587078       31.0993536235       11.8098158414  W2        9219            0.0000000000
     27656      9219  TIP3      H1            -18.2648187078       31.5204436235       11.9369758414  W2        9219            0.0000000000
     27657      9219  TIP3      H2            -19.1094487078       30.3593636235       12.4169558414  W2        9219            0.0000000000
     27658      9220  TIP3      OH2           -18.7203987078       29.1530936235       13.6333858414  W2        9220            0.0000000000
     27659      9220  TIP3      H1            -19.4469387078       28.6733536235       14.0311458414  W2        9220            0.0000000000
     27660      9220  TIP3      H2            -18.1390687078       29.3585636235       14.3655458414  W2        9220            0.0000000000
     27661      9221  TIP3      OH2           -18.9612787078       31.9378436235       18.5811458414  W2        9221            0.0000000000
     27662      9221  TIP3      H1            -18.1278587078       31.5598436235       18.3005058414  W2        9221            0.0000000000
     27663      9221  TIP3      H2            -18.8492487078       32.8809636235       18.4620558414  W2        9221            0.0000000000
     27664      9222  TIP3      OH2           -20.4750487078       34.8155936235       20.8879858414  W2        9222            0.0000000000
     27665      9222  TIP3      H1            -21.1225187078       35.1407436235       21.5135058414  W2        9222            0.0000000000
     27666      9222  TIP3      H2            -20.9926487078       34.3753636235       20.2138158414  W2        9222            0.0000000000
     27667      9223  TIP3      OH2           -18.4520887078       29.0539436235       10.0245158414  W2        9223            0.0000000000
     27668      9223  TIP3      H1            -18.9739787078       29.4103536235        9.3056058414  W2        9223            0.0000000000
     27669      9223  TIP3      H2            -18.4851687078       29.7287236235       10.7026058414  W2        9223            0.0000000000
     27670      9224  TIP3      OH2           -20.1031887078       26.2935036235        8.5752258414  W2        9224            0.0000000000
     27671      9224  TIP3      H1            -20.0067487078       26.9602036235        7.8951958414  W2        9224            0.0000000000
     27672      9224  TIP3      H2            -20.2432287078       25.4781336235        8.0937758414  W2        9224            0.0000000000
     27673      9225  TIP3      OH2           -20.9337187078       27.6737436235       14.1962558414  W2        9225            0.0000000000
     27674      9225  TIP3      H1            -21.0838387078       26.7286036235       14.1760358414  W2        9225            0.0000000000
     27675      9225  TIP3      H2            -21.2872687078       27.9548836235       15.0401658414  W2        9225            0.0000000000
     27676      9226  TIP3      OH2           -35.8984787078       29.7519636235       18.2066358414  W2        9226            0.0000000000
     27677      9226  TIP3      H1            -35.7141887078       29.6701336235       17.2709258414  W2        9226            0.0000000000
     27678      9226  TIP3      H2            -35.0491887078       29.6276636235       18.6302758414  W2        9226            0.0000000000
     27679      9227  TIP3      OH2           -20.0774287078       29.6440736235       23.8350858414  W2        9227            0.0000000000
     27680      9227  TIP3      H1            -19.4946987078       28.9093036235       24.0268058414  W2        9227            0.0000000000
     27681      9227  TIP3      H2            -19.5134987078       30.4161036235       23.8816658414  W2        9227            0.0000000000
     27682      9228  TIP3      OH2           -18.5807187078       27.5466536235       24.5196258414  W2        9228            0.0000000000
     27683      9228  TIP3      H1            -19.4440487078       27.1678636235       24.3540958414  W2        9228            0.0000000000
     27684      9228  TIP3      H2            -17.9763487078       26.8081336235       24.4452058414  W2        9228            0.0000000000
     27685      9229  TIP3      OH2           -20.8558087078       23.7014836235        7.6927758414  W2        9229            0.0000000000
     27686      9229  TIP3      H1            -20.2452287078       23.3301636235        8.3295958414  W2        9229            0.0000000000
     27687      9229  TIP3      H2            -21.6926587078       23.2801736235        7.8887758414  W2        9229            0.0000000000
     27688      9230  TIP3      OH2           -21.2232387078       25.2563236235       12.6587658414  W2        9230            0.0000000000
     27689      9230  TIP3      H1            -20.9435287078       24.3493636235       12.7829358414  W2        9230            0.0000000000
     27690      9230  TIP3      H2            -20.4640687078       25.6904736235       12.2696858414  W2        9230            0.0000000000
     27691      9231  TIP3      OH2           -20.6114087078       25.8380636235       18.0946558414  W2        9231            0.0000000000
     27692      9231  TIP3      H1            -19.6786087078       26.0500536235       18.0602558414  W2        9231            0.0000000000
     27693      9231  TIP3      H2            -20.8466587078       25.9392736235       19.0169558414  W2        9231            0.0000000000
     27694      9232  TIP3      OH2           -20.5822187078       26.5745936235       20.8705958414  W2        9232            0.0000000000
     27695      9232  TIP3      H1            -21.4250887078       26.8426336235       21.2365758414  W2        9232            0.0000000000
     27696      9232  TIP3      H2            -20.1397887078       27.3967836235       20.6597058414  W2        9232            0.0000000000
     27697      9233  TIP3      OH2           -36.3009987078       25.0224636235       24.3475158414  W2        9233            0.0000000000
     27698      9233  TIP3      H1            -35.3815087078       24.9002936235       24.5838258414  W2        9233            0.0000000000
     27699      9233  TIP3      H2            -36.7505487078       24.2724336235       24.7368658414  W2        9233            0.0000000000
     27700      9234  TIP3      OH2           -18.2990587078       20.5546136235       26.2240958414  W2        9234            0.0000000000
     27701      9234  TIP3      H1            -17.9493587078       19.9009636235       25.6185658414  W2        9234            0.0000000000
     27702      9234  TIP3      H2            -18.1521087078       21.3920236235       25.7843558414  W2        9234            0.0000000000
     27703      9235  TIP3      OH2           -20.6097587078       22.5192536235       12.7069658414  W2        9235            0.0000000000
     27704      9235  TIP3      H1            -20.4272587078       22.0704036235       13.5324658414  W2        9235            0.0000000000
     27705      9235  TIP3      H2            -21.2094687078       21.9346936235       12.2434258414  W2        9235            0.0000000000
     27706      9236  TIP3      OH2           -35.0797487078       23.3346236235       17.2388058414  W2        9236            0.0000000000
     27707      9236  TIP3      H1            -34.6345887078       22.5428736235       17.5407758414  W2        9236            0.0000000000
     27708      9236  TIP3      H2            -34.6134487078       24.0511436235       17.6693658414  W2        9236            0.0000000000
     27709      9237  TIP3      OH2           -36.7757187078       26.3339236235       18.3078258414  W2        9237            0.0000000000
     27710      9237  TIP3      H1            -36.2837387078       26.1129736235       17.5170258414  W2        9237            0.0000000000
     27711      9237  TIP3      H2            -36.4136287078       27.1742636235       18.5887758414  W2        9237            0.0000000000
     27712      9238  TIP3      OH2           -18.7793387078       22.6640736235       24.5732258414  W2        9238            0.0000000000
     27713      9238  TIP3      H1            -19.6967687078       22.9347836235       24.5375758414  W2        9238            0.0000000000
     27714      9238  TIP3      H2            -18.6563987078       22.1289136235       23.7891958414  W2        9238            0.0000000000
     27715      9239  TIP3      OH2           -18.7431387078       22.5870636235        9.2349958414  W2        9239            0.0000000000
     27716      9239  TIP3      H1            -18.3308787078       21.8656336235        8.7597958414  W2        9239            0.0000000000
     27717      9239  TIP3      H2            -18.0614887078       23.2565236235        9.2934258414  W2        9239            0.0000000000
     27718      9240  TIP3      OH2           -36.4620687078       22.5918336235       12.3620658414  W2        9240            0.0000000000
     27719      9240  TIP3      H1            -37.3872287078       22.8004936235       12.2326158414  W2        9240            0.0000000000
     27720      9240  TIP3      H2            -36.0080787078       23.0759136235       11.6722958414  W2        9240            0.0000000000
     27721      9241  TIP3      OH2           -36.4985287078       21.3297336235       20.7063158414  W2        9241            0.0000000000
     27722      9241  TIP3      H1            -37.1634787078       21.0837636235       21.3494058414  W2        9241            0.0000000000
     27723      9241  TIP3      H2            -36.9413987078       21.9517736235       20.1291158414  W2        9241            0.0000000000
     27724      9242  TIP3      OH2           -34.3065987078       34.5051436235       24.8508958414  W2        9242            0.0000000000
     27725      9242  TIP3      H1            -35.1273487078       34.6797936235       24.3903658414  W2        9242            0.0000000000
     27726      9242  TIP3      H2            -34.5588187078       34.4316136235       25.7713358414  W2        9242            0.0000000000
     27727      9243  TIP3      OH2           -31.3523087078       35.4792636235       21.1092958414  W2        9243            0.0000000000
     27728      9243  TIP3      H1            -31.7771987078       36.2891136235       20.8267558414  W2        9243            0.0000000000
     27729      9243  TIP3      H2            -30.4480287078       35.5646736235       20.8072758414  W2        9243            0.0000000000
     27730      9244  TIP3      OH2           -19.7787487078       20.7537036235       22.3923058414  W2        9244            0.0000000000
     27731      9244  TIP3      H1            -20.5913987078       21.0787336235       22.0047758414  W2        9244            0.0000000000
     27732      9244  TIP3      H2            -19.5458987078       19.9935536235       21.8592158414  W2        9244            0.0000000000
     27733      9245  TIP3      OH2           -32.3945187078       36.0687736235       16.7219958414  W2        9245            0.0000000000
     27734      9245  TIP3      H1            -32.6134487078       35.1525136235       16.8915958414  W2        9245            0.0000000000
     27735      9245  TIP3      H2            -31.5702987078       36.2088136235       17.1881358414  W2        9245            0.0000000000
     27736      9246  TIP3      OH2           -29.8572687078       36.5387036235       17.5707958414  W2        9246            0.0000000000
     27737      9246  TIP3      H1            -29.6446987078       35.6506036235       17.2838858414  W2        9246            0.0000000000
     27738      9246  TIP3      H2            -29.7927587078       36.5044736235       18.5251958414  W2        9246            0.0000000000
     27739      9247  TIP3      OH2           -26.3488987078       22.2027636235       16.7151258414  W2        9247            0.0000000000
     27740      9247  TIP3      H1            -27.0232187078       21.5733236235       16.9707058414  W2        9247            0.0000000000
     27741      9247  TIP3      H2            -25.7849787078       21.7186536235       16.1119158414  W2        9247            0.0000000000
     27742      9248  TIP3      OH2           -21.2061787078       20.3101636235       16.8278358414  W2        9248            0.0000000000
     27743      9248  TIP3      H1            -20.6024187078       20.8577036235       16.3259358414  W2        9248            0.0000000000
     27744      9248  TIP3      H2            -22.0759787078       20.6292036235       16.5872458414  W2        9248            0.0000000000
     27745      9249  TIP3      OH2           -19.4791387078       21.4490336235       15.1609258414  W2        9249            0.0000000000
     27746      9249  TIP3      H1            -18.8673887078       20.9346036235       14.6342858414  W2        9249            0.0000000000
     27747      9249  TIP3      H2            -19.0967987078       22.3262436235       15.1843658414  W2        9249            0.0000000000
     27748      9250  TIP3      OH2           -34.0221487078       20.8367936235       14.5371158414  W2        9250            0.0000000000
     27749      9250  TIP3      H1            -34.7991687078       20.6022836235       14.0297058414  W2        9250            0.0000000000
     27750      9250  TIP3      H2            -33.4917887078       20.0400036235       14.5459158414  W2        9250            0.0000000000
     27751      9251  TIP3      OH2           -35.1858087078       20.6346036235       10.3407258414  W2        9251            0.0000000000
     27752      9251  TIP3      H1            -34.7467387078       21.2456536235        9.7490758414  W2        9251            0.0000000000
     27753      9251  TIP3      H2            -35.8195687078       21.1730136235       10.8147258414  W2        9251            0.0000000000
     27754      9252  TIP3      OH2           -29.4428887078       20.7635036235       14.3504258414  W2        9252            0.0000000000
     27755      9252  TIP3      H1            -28.5685487078       21.1519336235       14.3208558414  W2        9252            0.0000000000
     27756      9252  TIP3      H2            -29.5788087078       20.5482836235       15.2731458414  W2        9252            0.0000000000
     27757      9253  TIP3      OH2           -23.8860487078       20.7934836235       15.9995958414  W2        9253            0.0000000000
     27758      9253  TIP3      H1            -23.8098887078       20.8886436235       15.0501958414  W2        9253            0.0000000000
     27759      9253  TIP3      H2            -24.1611287078       19.8857736235       16.1285058414  W2        9253            0.0000000000
     27760      9254  TIP3      OH2           -22.5327887078       20.8192636235       11.6920958414  W2        9254            0.0000000000
     27761      9254  TIP3      H1            -23.2356787078       21.4341836235       11.4822358414  W2        9254            0.0000000000
     27762      9254  TIP3      H2            -22.9776487078       19.9819336235       11.8231858414  W2        9254            0.0000000000
     27763      9255  TIP3      OH2           -35.2848587078       36.5828236235       11.2382358414  W2        9255            0.0000000000
     27764      9255  TIP3      H1            -35.9698687078       36.5447136235       10.5707458414  W2        9255            0.0000000000
     27765      9255  TIP3      H2            -35.2811387078       37.4955836235       11.5264458414  W2        9255            0.0000000000
     27766      9256  TIP3      OH2           -33.3248987078       22.5507536235        8.7831358414  W2        9256            0.0000000000
     27767      9256  TIP3      H1            -32.8335587078       21.9209936235        8.2556858414  W2        9256            0.0000000000
     27768      9256  TIP3      H2            -32.7012687078       22.8466936235        9.4462558414  W2        9256            0.0000000000
     27769      9257  TIP3      OH2           -28.2988887078       22.8439036235       11.2401858414  W2        9257            0.0000000000
     27770      9257  TIP3      H1            -28.1207587078       22.1972236235       11.9230458414  W2        9257            0.0000000000
     27771      9257  TIP3      H2            -28.3522687078       23.6776736235       11.7072958414  W2        9257            0.0000000000
     27772      9258  TIP3      OH2           -34.0643487078       21.3509836235       24.0547358414  W2        9258            0.0000000000
     27773      9258  TIP3      H1            -34.4305287078       20.5852436235       24.4972058414  W2        9258            0.0000000000
     27774      9258  TIP3      H2            -33.1514987078       21.3800036235       24.3412458414  W2        9258            0.0000000000
     27775      9259  TIP3      OH2           -32.0912687078       20.7014236235       25.5904458414  W2        9259            0.0000000000
     27776      9259  TIP3      H1            -31.1929087078       20.4274436235       25.4057858414  W2        9259            0.0000000000
     27777      9259  TIP3      H2            -32.4779587078       19.9590236235       26.0547058414  W2        9259            0.0000000000
     27778      9260  TIP3      OH2           -23.6700387078       20.0339536235       25.7727258414  W2        9260            0.0000000000
     27779      9260  TIP3      H1            -23.5933187078       19.6080236235       26.6264958414  W2        9260            0.0000000000
     27780      9260  TIP3      H2            -22.7763787078       20.0474236235       25.4300758414  W2        9260            0.0000000000
     27781      9261  TIP3      OH2           -20.4939287078       36.1065836235       24.4651458414  W2        9261            0.0000000000
     27782      9261  TIP3      H1            -21.2757387078       35.9203836235       23.9452058414  W2        9261            0.0000000000
     27783      9261  TIP3      H2            -20.5659387078       37.0360136235       24.6823958414  W2        9261            0.0000000000
     27784      9262  TIP3      OH2            -6.0878887078       29.9930236235       14.4958658414  W2        9262            0.0000000000
     27785      9262  TIP3      H1             -5.9987787078       30.9368436235       14.3635758414  W2        9262            0.0000000000
     27786      9262  TIP3      H2             -6.7261287078       29.7176636235       13.8378058414  W2        9262            0.0000000000
     27787      9263  TIP3      OH2            -7.1547587078       29.2480936235       17.9146858414  W2        9263            0.0000000000
     27788      9263  TIP3      H1             -7.1930087078       28.6017236235       18.6196458414  W2        9263            0.0000000000
     27789      9263  TIP3      H2             -7.4771087078       28.7815336235       17.1435558414  W2        9263            0.0000000000
     27790      9264  TIP3      OH2           -14.7862587078       28.8623036235       19.5076758414  W2        9264            0.0000000000
     27791      9264  TIP3      H1            -14.7450487078       28.2366336235       20.2309158414  W2        9264            0.0000000000
     27792      9264  TIP3      H2            -14.0834887078       29.4861636235       19.6897158414  W2        9264            0.0000000000
     27793      9265  TIP3      OH2            -3.4487387078       32.1871336235       16.2161958414  W2        9265            0.0000000000
     27794      9265  TIP3      H1             -3.8894687078       31.4667336235       16.6667558414  W2        9265            0.0000000000
     27795      9265  TIP3      H2             -3.4617687078       32.9078536235       16.8459658414  W2        9265            0.0000000000
     27796      9266  TIP3      OH2           -13.8629487078       33.3121936235       18.0425858414  W2        9266            0.0000000000
     27797      9266  TIP3      H1            -14.2324287078       32.5102436235       17.6730158414  W2        9266            0.0000000000
     27798      9266  TIP3      H2            -12.9218387078       33.1436836235       18.0889258414  W2        9266            0.0000000000
     27799      9267  TIP3      OH2           -17.2528987078       26.9724536235       13.4354658414  W2        9267            0.0000000000
     27800      9267  TIP3      H1            -17.7005587078       27.8183236235       13.4171158414  W2        9267            0.0000000000
     27801      9267  TIP3      H2            -17.8137787078       26.3928736235       12.9199758414  W2        9267            0.0000000000
     27802      9268  TIP3      OH2           -16.5422887078       29.1344136235       15.5612658414  W2        9268            0.0000000000
     27803      9268  TIP3      H1            -16.3289387078       28.3645736235       16.0885658414  W2        9268            0.0000000000
     27804      9268  TIP3      H2            -15.8045287078       29.2240836235       14.9580258414  W2        9268            0.0000000000
     27805      9269  TIP3      OH2            -8.7653187078       31.6802336235       18.3207858414  W2        9269            0.0000000000
     27806      9269  TIP3      H1             -8.4615287078       30.9943736235       17.7261958414  W2        9269            0.0000000000
     27807      9269  TIP3      H2             -8.0439187078       31.7991036235       18.9385858414  W2        9269            0.0000000000
     27808      9270  TIP3      OH2            -0.1023387078       23.2817636235       19.1814058414  W2        9270            0.0000000000
     27809      9270  TIP3      H1             -0.0531187078       23.8918836235       19.9173158414  W2        9270            0.0000000000
     27810      9270  TIP3      H2              0.3231712922       23.7428536235       18.4585158414  W2        9270            0.0000000000
     27811      9271  TIP3      OH2            -5.6246187078       26.0744736235       18.6482658414  W2        9271            0.0000000000
     27812      9271  TIP3      H1             -5.4820287078       25.1281736235       18.6684258414  W2        9271            0.0000000000
     27813      9271  TIP3      H2             -5.7307187078       26.2814536235       17.7197558414  W2        9271            0.0000000000
     27814      9272  TIP3      OH2           -12.4697887078       24.1761136235       15.9207458414  W2        9272            0.0000000000
     27815      9272  TIP3      H1            -12.4266787078       25.0359636235       15.5023758414  W2        9272            0.0000000000
     27816      9272  TIP3      H2            -12.9273787078       23.6235836235       15.2870658414  W2        9272            0.0000000000
     27817      9273  TIP3      OH2            -4.7475187078       24.3066736235       14.3215758414  W2        9273            0.0000000000
     27818      9273  TIP3      H1             -4.1010887078       23.9779936235       14.9463358414  W2        9273            0.0000000000
     27819      9273  TIP3      H2             -4.2375787078       24.8245736235       13.6987158414  W2        9273            0.0000000000
     27820      9274  TIP3      OH2           -15.8496387078       26.5726936235       16.6828858414  W2        9274            0.0000000000
     27821      9274  TIP3      H1            -15.1959787078       26.0228636235       17.1148958414  W2        9274            0.0000000000
     27822      9274  TIP3      H2            -15.8257087078       26.2985936235       15.7660858414  W2        9274            0.0000000000
     27823      9275  TIP3      OH2           -10.6931887078       28.1228236235       15.8980358414  W2        9275            0.0000000000
     27824      9275  TIP3      H1            -10.0770887078       27.5963636235       16.4074358414  W2        9275            0.0000000000
     27825      9275  TIP3      H2            -11.2793087078       27.4826936235       15.4943958414  W2        9275            0.0000000000
     27826      9276  TIP3      OH2             0.2891212922       24.7596836235       21.4173858414  W2        9276            0.0000000000
     27827      9276  TIP3      H1             -0.3994187078       25.4177536235       21.3220458414  W2        9276            0.0000000000
     27828      9276  TIP3      H2              0.3045812922       24.5624736235       22.3539258414  W2        9276            0.0000000000
     27829      9277  TIP3      OH2           -13.6595987078       23.0939536235       19.9948258414  W2        9277            0.0000000000
     27830      9277  TIP3      H1            -13.8784287078       23.6240136235       19.2284258414  W2        9277            0.0000000000
     27831      9277  TIP3      H2            -14.3275087078       23.3205036235       20.6419658414  W2        9277            0.0000000000
     27832      9278  TIP3      OH2            -6.2906187078       32.5940636235       13.5387358414  W2        9278            0.0000000000
     27833      9278  TIP3      H1             -6.5861087078       32.2712936235       12.6874258414  W2        9278            0.0000000000
     27834      9278  TIP3      H2             -6.6148387078       33.4937336235       13.5799958414  W2        9278            0.0000000000
     27835      9279  TIP3      OH2           -11.0904587078       30.7695236235       20.2821958414  W2        9279            0.0000000000
     27836      9279  TIP3      H1            -11.8305487078       31.3676736235       20.3857158414  W2        9279            0.0000000000
     27837      9279  TIP3      H2            -10.3765087078       31.3234836235       19.9665558414  W2        9279            0.0000000000
     27838      9280  TIP3      OH2            -2.9836787078       23.5976036235       16.3021658414  W2        9280            0.0000000000
     27839      9280  TIP3      H1             -3.1988787078       22.8319436235       16.8347658414  W2        9280            0.0000000000
     27840      9280  TIP3      H2             -2.3279387078       24.0700636235       16.8150158414  W2        9280            0.0000000000
     27841      9281  TIP3      OH2           -14.0658687078       24.9861336235       17.9470458414  W2        9281            0.0000000000
     27842      9281  TIP3      H1            -13.4522387078       25.6188936235       18.3202858414  W2        9281            0.0000000000
     27843      9281  TIP3      H2            -13.5537987078       24.5136336235       17.2907358414  W2        9281            0.0000000000
     27844      9282  TIP3      OH2           -12.6830287078       32.7338236235       21.0693458414  W2        9282            0.0000000000
     27845      9282  TIP3      H1            -12.6882687078       33.6131736235       20.6912758414  W2        9282            0.0000000000
     27846      9282  TIP3      H2            -13.5366187078       32.6502336235       21.4943358414  W2        9282            0.0000000000
     27847      9283  TIP3      OH2           -16.5619387078       32.4046136235       11.8512758414  W2        9283            0.0000000000
     27848      9283  TIP3      H1            -16.8338487078       32.6337136235       10.9625658414  W2        9283            0.0000000000
     27849      9283  TIP3      H2            -16.5163687078       33.2424936235       12.3118058414  W2        9283            0.0000000000
     27850      9284  TIP3      OH2            -2.9369687078       34.0262036235       18.5641258414  W2        9284            0.0000000000
     27851      9284  TIP3      H1             -3.8785987078       34.0845936235       18.7258158414  W2        9284            0.0000000000
     27852      9284  TIP3      H2             -2.6603587078       34.9322536235       18.4270958414  W2        9284            0.0000000000
     27853      9285  TIP3      OH2            -2.6362687078       22.3127336235       19.9815158414  W2        9285            0.0000000000
     27854      9285  TIP3      H1             -3.3723487078       22.9234436235       19.9436458414  W2        9285            0.0000000000
     27855      9285  TIP3      H2             -1.9528687078       22.7276336235       19.4551558414  W2        9285            0.0000000000
     27856      9286  TIP3      OH2            -9.6331287078       20.3994636235       17.4473158414  W2        9286            0.0000000000
     27857      9286  TIP3      H1             -9.7507087078       19.4510636235       17.3931458414  W2        9286            0.0000000000
     27858      9286  TIP3      H2            -10.4881187078       20.7320736235       17.7204258414  W2        9286            0.0000000000
     27859      9287  TIP3      OH2            -4.6848487078       35.8075536235       15.1892858414  W2        9287            0.0000000000
     27860      9287  TIP3      H1             -4.2596187078       35.1003436235       14.7042458414  W2        9287            0.0000000000
     27861      9287  TIP3      H2             -4.3678487078       36.6088236235       14.7725058414  W2        9287            0.0000000000
     27862      9288  TIP3      OH2            -3.5251987078       33.7084036235       13.6979458414  W2        9288            0.0000000000
     27863      9288  TIP3      H1             -3.7827187078       33.0184136235       13.0865358414  W2        9288            0.0000000000
     27864      9288  TIP3      H2             -3.4541187078       33.2655236235       14.5435358414  W2        9288            0.0000000000
     27865      9289  TIP3      OH2            -1.8391787078       32.2750736235       22.1752958414  W2        9289            0.0000000000
     27866      9289  TIP3      H1             -1.6995487078       31.6833236235       21.4359958414  W2        9289            0.0000000000
     27867      9289  TIP3      H2             -1.6718987078       33.1476636235       21.8191758414  W2        9289            0.0000000000
     27868      9290  TIP3      OH2            -7.3666387078       29.2370236235       11.9478958414  W2        9290            0.0000000000
     27869      9290  TIP3      H1             -8.0780887078       29.7719936235       11.5959458414  W2        9290            0.0000000000
     27870      9290  TIP3      H2             -6.6756787078       29.2922336235       11.2877858414  W2        9290            0.0000000000
     27871      9291  TIP3      OH2            -7.3127187078       27.6944536235        8.9863958414  W2        9291            0.0000000000
     27872      9291  TIP3      H1             -6.6117287078       27.7171436235        9.6377958414  W2        9291            0.0000000000
     27873      9291  TIP3      H2             -7.0104287078       27.0664236235        8.3303258414  W2        9291            0.0000000000
     27874      9292  TIP3      OH2             0.0027512922       28.6148736235       20.2413358414  W2        9292            0.0000000000
     27875      9292  TIP3      H1             -0.6498387078       29.3094336235       20.3304258414  W2        9292            0.0000000000
     27876      9292  TIP3      H2              0.4677812922       28.8249636235       19.4314958414  W2        9292            0.0000000000
     27877      9293  TIP3      OH2            -3.9608687078       29.4463536235       12.8994858414  W2        9293            0.0000000000
     27878      9293  TIP3      H1             -4.6927687078       29.6747236235       13.4725458414  W2        9293            0.0000000000
     27879      9293  TIP3      H2             -3.5136487078       28.7326236235       13.3542358414  W2        9293            0.0000000000
     27880      9294  TIP3      OH2            -4.0635187078       27.6206136235       21.9671858414  W2        9294            0.0000000000
     27881      9294  TIP3      H1             -3.9836087078       28.3840536235       22.5390358414  W2        9294            0.0000000000
     27882      9294  TIP3      H2             -4.6647487078       27.8998536235       21.2766958414  W2        9294            0.0000000000
     27883      9295  TIP3      OH2           -12.3154987078       30.0769736235       14.7819858414  W2        9295            0.0000000000
     27884      9295  TIP3      H1            -12.6459787078       29.7063136235       13.9636858414  W2        9295            0.0000000000
     27885      9295  TIP3      H2            -11.7270887078       29.4063736235       15.1288158414  W2        9295            0.0000000000
     27886      9296  TIP3      OH2           -10.9487487078       33.5050336235       17.4632058414  W2        9296            0.0000000000
     27887      9296  TIP3      H1            -11.0436187078       32.9263436235       16.7066658414  W2        9296            0.0000000000
     27888      9296  TIP3      H2            -10.2193887078       33.1336036235       17.9594858414  W2        9296            0.0000000000
     27889      9297  TIP3      OH2           -11.9489487078       28.8455336235       18.4154858414  W2        9297            0.0000000000
     27890      9297  TIP3      H1            -11.3836987078       28.9669536235       17.6526058414  W2        9297            0.0000000000
     27891      9297  TIP3      H2            -11.6300587078       29.4830336235       19.0543358414  W2        9297            0.0000000000
     27892      9298  TIP3      OH2            -5.6397287078       34.3487236235       19.1495358414  W2        9298            0.0000000000
     27893      9298  TIP3      H1             -5.8800687078       35.0110336235       19.7974558414  W2        9298            0.0000000000
     27894      9298  TIP3      H2             -5.8379087078       33.5142436235       19.5744958414  W2        9298            0.0000000000
     27895      9299  TIP3      OH2           -11.0688787078       33.2448036235       23.1326758414  W2        9299            0.0000000000
     27896      9299  TIP3      H1            -11.3801287078       34.0271236235       23.5879958414  W2        9299            0.0000000000
     27897      9299  TIP3      H2            -11.7188587078       33.0917136235       22.4468758414  W2        9299            0.0000000000
     27898      9300  TIP3      OH2            -5.0899187078       28.6086436235       10.5846058414  W2        9300            0.0000000000
     27899      9300  TIP3      H1             -4.5103687078       28.7586736235       11.3314958414  W2        9300            0.0000000000
     27900      9300  TIP3      H2             -4.6759187078       29.0793836235        9.8612458414  W2        9300            0.0000000000
     27901      9301  TIP3      OH2           -14.1488887078       29.4429136235       22.3612458414  W2        9301            0.0000000000
     27902      9301  TIP3      H1            -14.0785687078       30.0935936235       23.0597458414  W2        9301            0.0000000000
     27903      9301  TIP3      H2            -15.0396687078       29.5456636235       22.0263358414  W2        9301            0.0000000000
     27904      9302  TIP3      OH2            -7.3634287078       35.3454936235       14.0199158414  W2        9302            0.0000000000
     27905      9302  TIP3      H1             -6.8896687078       35.6411236235       14.7973358414  W2        9302            0.0000000000
     27906      9302  TIP3      H2             -7.9264987078       36.0836536235       13.7868758414  W2        9302            0.0000000000
     27907      9303  TIP3      OH2           -12.8292887078       35.3163036235       23.8960558414  W2        9303            0.0000000000
     27908      9303  TIP3      H1            -12.8217587078       35.1802736235       22.9486058414  W2        9303            0.0000000000
     27909      9303  TIP3      H2            -13.7452487078       35.1991136235       24.1480558414  W2        9303            0.0000000000
     27910      9304  TIP3      OH2            -1.3910787078       20.3586836235       10.3975758414  W2        9304            0.0000000000
     27911      9304  TIP3      H1             -2.2910087078       20.4975836235       10.6926358414  W2        9304            0.0000000000
     27912      9304  TIP3      H2             -1.1392387078       21.1901436235        9.9957458414  W2        9304            0.0000000000
     27913      9305  TIP3      OH2           -13.3252287078       29.1464036235       12.3712658414  W2        9305            0.0000000000
     27914      9305  TIP3      H1            -13.6170987078       29.9145736235       11.8803958414  W2        9305            0.0000000000
     27915      9305  TIP3      H2            -13.9997087078       28.4870236235       12.2084058414  W2        9305            0.0000000000
     27916      9306  TIP3      OH2            -0.2019387078       34.7249236235        8.7739658414  W2        9306            0.0000000000
     27917      9306  TIP3      H1             -0.1285887078       35.6639436235        8.9444958414  W2        9306            0.0000000000
     27918      9306  TIP3      H2              0.7035712922       34.4197836235        8.7176958414  W2        9306            0.0000000000
     27919      9307  TIP3      OH2           -17.2322187078       31.5093236235       21.1862458414  W2        9307            0.0000000000
     27920      9307  TIP3      H1            -17.7333787078       31.4812636235       20.3712158414  W2        9307            0.0000000000
     27921      9307  TIP3      H2            -17.2268487078       30.6036436235       21.4959758414  W2        9307            0.0000000000
     27922      9308  TIP3      OH2           -17.4819487078       34.2897036235       18.0702658414  W2        9308            0.0000000000
     27923      9308  TIP3      H1            -16.5358887078       34.1454036235       18.0512158414  W2        9308            0.0000000000
     27924      9308  TIP3      H2            -17.5943187078       35.0739836235       18.6073858414  W2        9308            0.0000000000
     27925      9309  TIP3      OH2             0.7159012922       34.9556736235       23.7526358414  W2        9309            0.0000000000
     27926      9309  TIP3      H1              0.6665812922       34.0004836235       23.7153958414  W2        9309            0.0000000000
     27927      9309  TIP3      H2             -0.1108687078       35.2232036235       24.1540158414  W2        9309            0.0000000000
     27928      9310  TIP3      OH2            -8.3056987078       34.5295936235       22.6287758414  W2        9310            0.0000000000
     27929      9310  TIP3      H1             -8.2182387078       35.3560536235       23.1036858414  W2        9310            0.0000000000
     27930      9310  TIP3      H2             -9.1691887078       34.1999736235       22.8777058414  W2        9310            0.0000000000
     27931      9311  TIP3      OH2            -2.1321187078       26.4489236235       24.2328558414  W2        9311            0.0000000000
     27932      9311  TIP3      H1             -2.5394387078       26.9294836235       23.5121858414  W2        9311            0.0000000000
     27933      9311  TIP3      H2             -2.0915487078       25.5435236235       23.9249358414  W2        9311            0.0000000000
     27934      9312  TIP3      OH2           -14.9831687078       32.8328636235       22.2295258414  W2        9312            0.0000000000
     27935      9312  TIP3      H1            -14.7670387078       32.4714236235       23.0891058414  W2        9312            0.0000000000
     27936      9312  TIP3      H2            -15.8386987078       32.4582436235       22.0198758414  W2        9312            0.0000000000
     27937      9313  TIP3      OH2           -12.3643687078       21.3029136235       18.2249458414  W2        9313            0.0000000000
     27938      9313  TIP3      H1            -13.2259987078       21.2157336235       17.8172358414  W2        9313            0.0000000000
     27939      9313  TIP3      H2            -12.3867987078       22.1589236235       18.6527058414  W2        9313            0.0000000000
     27940      9314  TIP3      OH2            -7.7015887078       21.0249536235       21.5996458414  W2        9314            0.0000000000
     27941      9314  TIP3      H1             -7.2812787078       20.6096636235       22.3527058414  W2        9314            0.0000000000
     27942      9314  TIP3      H2             -8.6346287078       20.8462836235       21.7168458414  W2        9314            0.0000000000
     27943      9315  TIP3      OH2            -4.3750987078       24.7804736235       22.4530958414  W2        9315            0.0000000000
     27944      9315  TIP3      H1             -4.8891487078       24.6546936235       23.2506958414  W2        9315            0.0000000000
     27945      9315  TIP3      H2             -4.5306287078       25.6927836235       22.2087158414  W2        9315            0.0000000000
     27946      9316  TIP3      OH2            -3.6126087078       29.6414736235        8.2143958414  W2        9316            0.0000000000
     27947      9316  TIP3      H1             -3.5705287078       29.4188636235        7.2843958414  W2        9316            0.0000000000
     27948      9316  TIP3      H2             -2.7633987078       30.0401836235        8.4043858414  W2        9316            0.0000000000
     27949      9317  TIP3      OH2            -8.0398587078       23.5172936235        8.8847258414  W2        9317            0.0000000000
     27950      9317  TIP3      H1             -8.2933787078       23.5364536235        9.8075358414  W2        9317            0.0000000000
     27951      9317  TIP3      H2             -8.2966487078       22.6458336235        8.5833458414  W2        9317            0.0000000000
     27952      9318  TIP3      OH2           -12.2733587078       26.2683636235       19.3199658414  W2        9318            0.0000000000
     27953      9318  TIP3      H1            -12.9151487078       26.2280936235       20.0289758414  W2        9318            0.0000000000
     27954      9318  TIP3      H2            -12.2361587078       27.1948336235       19.0822658414  W2        9318            0.0000000000
     27955      9319  TIP3      OH2           -12.2764487078       26.4893736235       14.2319658414  W2        9319            0.0000000000
     27956      9319  TIP3      H1            -13.1691587078       26.1489836235       14.1733458414  W2        9319            0.0000000000
     27957      9319  TIP3      H2            -11.8257887078       26.1124636235       13.4762858414  W2        9319            0.0000000000
     27958      9320  TIP3      OH2            -6.7408987078       26.9054036235       13.0490458414  W2        9320            0.0000000000
     27959      9320  TIP3      H1             -7.1498687078       27.7202636235       12.7575258414  W2        9320            0.0000000000
     27960      9320  TIP3      H2             -6.0202787078       26.7654136235       12.4347558414  W2        9320            0.0000000000
     27961      9321  TIP3      OH2            -7.6387387078       27.0810436235       24.5371158414  W2        9321            0.0000000000
     27962      9321  TIP3      H1             -8.2013587078       26.3762036235       24.8578958414  W2        9321            0.0000000000
     27963      9321  TIP3      H2             -6.8123987078       26.9602336235       25.0048758414  W2        9321            0.0000000000
     27964      9322  TIP3      OH2            -5.7361287078       26.3514436235       15.8630158414  W2        9322            0.0000000000
     27965      9322  TIP3      H1             -5.9316787078       26.9571236235       15.1480758414  W2        9322            0.0000000000
     27966      9322  TIP3      H2             -5.5548687078       25.5179636235       15.4286458414  W2        9322            0.0000000000
     27967      9323  TIP3      OH2           -14.5233087078       26.5887136235       21.1871658414  W2        9323            0.0000000000
     27968      9323  TIP3      H1            -14.5613687078       26.9888736235       22.0558758414  W2        9323            0.0000000000
     27969      9323  TIP3      H2            -15.0141987078       25.7719536235       21.2774558414  W2        9323            0.0000000000
     27970      9324  TIP3      OH2           -11.1575687078       23.9629436235        7.9857658414  W2        9324            0.0000000000
     27971      9324  TIP3      H1            -11.5884987078       23.5179536235        8.7155058414  W2        9324            0.0000000000
     27972      9324  TIP3      H2            -11.8756987078       24.3345736235        7.4735158414  W2        9324            0.0000000000
     27973      9325  TIP3      OH2           -17.9152287078       23.7048936235       15.0376358414  W2        9325            0.0000000000
     27974      9325  TIP3      H1            -17.2844587078       23.6761036235       15.7570258414  W2        9325            0.0000000000
     27975      9325  TIP3      H2            -17.4657987078       23.2797636235       14.3072258414  W2        9325            0.0000000000
     27976      9326  TIP3      OH2           -16.6410187078       24.4510936235       10.4616758414  W2        9326            0.0000000000
     27977      9326  TIP3      H1            -16.1668487078       25.0420836235        9.8767658414  W2        9326            0.0000000000
     27978      9326  TIP3      H2            -17.3583787078       24.9813836235       10.8086858414  W2        9326            0.0000000000
     27979      9327  TIP3      OH2            -6.4722087078       27.9895736235       20.5342558414  W2        9327            0.0000000000
     27980      9327  TIP3      H1             -6.1487287078       27.3585436235       19.8913058414  W2        9327            0.0000000000
     27981      9327  TIP3      H2             -6.9122787078       27.4547936235       21.1949958414  W2        9327            0.0000000000
     27982      9328  TIP3      OH2            -9.6949187078       23.9171236235       15.3183758414  W2        9328            0.0000000000
     27983      9328  TIP3      H1            -10.6058087078       23.9738036235       15.6069758414  W2        9328            0.0000000000
     27984      9328  TIP3      H2             -9.1896287078       23.8566736235       16.1290958414  W2        9328            0.0000000000
     27985      9329  TIP3      OH2           -14.8665787078       25.5457536235       14.1451358414  W2        9329            0.0000000000
     27986      9329  TIP3      H1            -15.7557787078       25.6453036235       13.8050958414  W2        9329            0.0000000000
     27987      9329  TIP3      H2            -14.5700887078       24.7040536235       13.7989258414  W2        9329            0.0000000000
     27988      9330  TIP3      OH2           -11.2133987078       25.5460136235       11.8015958414  W2        9330            0.0000000000
     27989      9330  TIP3      H1            -10.2818487078       25.6750136235       11.9799058414  W2        9330            0.0000000000
     27990      9330  TIP3      H2            -11.4283687078       26.2154436235       11.1520658414  W2        9330            0.0000000000
     27991      9331  TIP3      OH2            -5.2897287078       23.1517536235       18.5825558414  W2        9331            0.0000000000
     27992      9331  TIP3      H1             -5.9665687078       23.2830636235       19.2465258414  W2        9331            0.0000000000
     27993      9331  TIP3      H2             -5.7752387078       22.9967036235       17.7723258414  W2        9331            0.0000000000
     27994      9332  TIP3      OH2           -12.5393787078       26.7402336235        9.3682058414  W2        9332            0.0000000000
     27995      9332  TIP3      H1            -13.0818687078       26.3606136235        8.6769658414  W2        9332            0.0000000000
     27996      9332  TIP3      H2            -11.7058887078       26.9347036235        8.9396158414  W2        9332            0.0000000000
     27997      9333  TIP3      OH2           -14.4042387078       31.2974236235       24.4673658414  W2        9333            0.0000000000
     27998      9333  TIP3      H1            -13.6719987078       31.5520136235       25.0288158414  W2        9333            0.0000000000
     27999      9333  TIP3      H2            -15.1843687078       31.5019636235       24.9829058414  W2        9333            0.0000000000
     28000      9334  TIP3      OH2            -8.3749487078       26.7044236235       17.2053358414  W2        9334            0.0000000000
     28001      9334  TIP3      H1             -7.8106087078       26.1580836235       16.6582958414  W2        9334            0.0000000000
     28002      9334  TIP3      H2             -8.5226087078       26.1826136235       17.9940958414  W2        9334            0.0000000000
     28003      9335  TIP3      OH2           -13.3729787078       22.8410336235       13.6238158414  W2        9335            0.0000000000
     28004      9335  TIP3      H1            -13.6900287078       21.9385636235       13.5883558414  W2        9335            0.0000000000
     28005      9335  TIP3      H2            -12.5915687078       22.8427736235       13.0709758414  W2        9335            0.0000000000
     28006      9336  TIP3      OH2            -9.7483587078       25.0930336235       19.6193758414  W2        9336            0.0000000000
     28007      9336  TIP3      H1            -10.5838287078       25.5469836235       19.7296158414  W2        9336            0.0000000000
     28008      9336  TIP3      H2             -9.2242987078       25.3688836235       20.3713658414  W2        9336            0.0000000000
     28009      9337  TIP3      OH2            -9.2040987078       31.3058036235       11.3040158414  W2        9337            0.0000000000
     28010      9337  TIP3      H1             -9.9489987078       30.7983336235       10.9818058414  W2        9337            0.0000000000
     28011      9337  TIP3      H2             -9.3383787078       31.3546036235       12.2504958414  W2        9337            0.0000000000
     28012      9338  TIP3      OH2            -2.0542087078       30.4386236235       20.0907758414  W2        9338            0.0000000000
     28013      9338  TIP3      H1             -1.4123287078       30.8952536235       19.5469958414  W2        9338            0.0000000000
     28014      9338  TIP3      H2             -2.8845187078       30.5518636235       19.6281858414  W2        9338            0.0000000000
     28015      9339  TIP3      OH2            -5.3064187078       24.1197936235        9.5032758414  W2        9339            0.0000000000
     28016      9339  TIP3      H1             -6.2449987078       24.2313536235        9.3521558414  W2        9339            0.0000000000
     28017      9339  TIP3      H2             -5.0092087078       24.9764836235        9.8098458414  W2        9339            0.0000000000
     28018      9340  TIP3      OH2            -7.6848887078       31.4901336235       22.5409258414  W2        9340            0.0000000000
     28019      9340  TIP3      H1             -8.0302787078       31.1083736235       23.3478858414  W2        9340            0.0000000000
     28020      9340  TIP3      H2             -7.8848787078       32.4234936235       22.6122158414  W2        9340            0.0000000000
     28021      9341  TIP3      OH2            -4.5880687078       25.9870636235       11.1640158414  W2        9341            0.0000000000
     28022      9341  TIP3      H1             -3.6961687078       25.8495636235       11.4831358414  W2        9341            0.0000000000
     28023      9341  TIP3      H2             -4.5317087078       26.7776736235       10.6273658414  W2        9341            0.0000000000
     28024      9342  TIP3      OH2           -14.0792687078       30.6008036235       17.0738058414  W2        9342            0.0000000000
     28025      9342  TIP3      H1            -13.3345487078       30.5983736235       16.4724558414  W2        9342            0.0000000000
     28026      9342  TIP3      H2            -14.0016087078       29.7771836235       17.5553158414  W2        9342            0.0000000000
     28027      9343  TIP3      OH2            -7.0786887078       32.7642336235       10.3294758414  W2        9343            0.0000000000
     28028      9343  TIP3      H1             -7.3738487078       33.5910236235       10.7109558414  W2        9343            0.0000000000
     28029      9343  TIP3      H2             -7.7816887078       32.1449236235       10.5256158414  W2        9343            0.0000000000
     28030      9344  TIP3      OH2           -17.0712987078       29.0614936235       22.3886558414  W2        9344            0.0000000000
     28031      9344  TIP3      H1            -16.8484387078       28.6434536235       23.2204058414  W2        9344            0.0000000000
     28032      9344  TIP3      H2            -17.6732887078       28.4489936235       21.9659358414  W2        9344            0.0000000000
     28033      9345  TIP3      OH2           -10.0548087078       28.5784836235       24.6016258414  W2        9345            0.0000000000
     28034      9345  TIP3      H1            -10.3507287078       28.4127836235       23.7065358414  W2        9345            0.0000000000
     28035      9345  TIP3      H2             -9.1232887078       28.3585136235       24.5910158414  W2        9345            0.0000000000
     28036      9346  TIP3      OH2            -5.4345287078       33.9516836235       22.4914258414  W2        9346            0.0000000000
     28037      9346  TIP3      H1             -6.3350987078       34.1349436235       22.2238158414  W2        9346            0.0000000000
     28038      9346  TIP3      H2             -5.4004187078       34.2106136235       23.4123058414  W2        9346            0.0000000000
     28039      9347  TIP3      OH2             0.2968012922       26.1964736235       10.8586858414  W2        9347            0.0000000000
     28040      9347  TIP3      H1             -0.2575687078       25.8002736235       10.1864358414  W2        9347            0.0000000000
     28041      9347  TIP3      H2              0.3971612922       27.1069936235       10.5810158414  W2        9347            0.0000000000
     28042      9348  TIP3      OH2             0.2600012922       31.9966436235       23.6958358414  W2        9348            0.0000000000
     28043      9348  TIP3      H1             -0.5911487078       32.2350236235       23.3284758414  W2        9348            0.0000000000
     28044      9348  TIP3      H2              0.8503412922       31.9799636235       22.9425458414  W2        9348            0.0000000000
     28045      9349  TIP3      OH2            -1.4080287078       34.9825136235       11.3238958414  W2        9349            0.0000000000
     28046      9349  TIP3      H1             -1.7809187078       34.1568936235       11.6329558414  W2        9349            0.0000000000
     28047      9349  TIP3      H2             -1.1306787078       34.7994536235       10.4262358414  W2        9349            0.0000000000
     28048      9350  TIP3      OH2            -4.2476387078       29.7904636235       18.3450858414  W2        9350            0.0000000000
     28049      9350  TIP3      H1             -5.1759487078       29.5586536235       18.3180158414  W2        9350            0.0000000000
     28050      9350  TIP3      H2             -3.7965287078       29.0134436235       18.0149658414  W2        9350            0.0000000000
     28051      9351  TIP3      OH2           -11.7043287078       34.1186236235       14.4779558414  W2        9351            0.0000000000
     28052      9351  TIP3      H1            -11.1771087078       34.8920636235       14.2778358414  W2        9351            0.0000000000
     28053      9351  TIP3      H2            -12.5844787078       34.3435436235       14.1763558414  W2        9351            0.0000000000
     28054      9352  TIP3      OH2           -15.9495587078       28.9810336235        9.0651958414  W2        9352            0.0000000000
     28055      9352  TIP3      H1            -15.3335687078       29.6077536235        9.4446758414  W2        9352            0.0000000000
     28056      9352  TIP3      H2            -16.8112987078       29.2970136235        9.3368458414  W2        9352            0.0000000000
     28057      9353  TIP3      OH2           -10.2770987078       31.7816136235       14.0543858414  W2        9353            0.0000000000
     28058      9353  TIP3      H1            -10.5180987078       32.7070536235       14.0959158414  W2        9353            0.0000000000
     28059      9353  TIP3      H2            -11.0177387078       31.3227436235       14.4507758414  W2        9353            0.0000000000
     28060      9354  TIP3      OH2            -9.7624387078       35.9309736235       20.3694958414  W2        9354            0.0000000000
     28061      9354  TIP3      H1             -9.3999687078       36.7855336235       20.1359358414  W2        9354            0.0000000000
     28062      9354  TIP3      H2             -9.2309187078       35.6391336235       21.1101258414  W2        9354            0.0000000000
     28063      9355  TIP3      OH2           -11.5940187078       36.8033736235       13.5996058414  W2        9355            0.0000000000
     28064      9355  TIP3      H1            -12.5439687078       36.9091136235       13.6509358414  W2        9355            0.0000000000
     28065      9355  TIP3      H2            -11.2422087078       37.6241136235       13.9443558414  W2        9355            0.0000000000
     28066      9356  TIP3      OH2            -6.2183587078       32.0300436235       20.0700558414  W2        9356            0.0000000000
     28067      9356  TIP3      H1             -6.6442287078       31.8022136235       20.8964558414  W2        9356            0.0000000000
     28068      9356  TIP3      H2             -5.6377787078       31.2912236235       19.8875858414  W2        9356            0.0000000000
     28069      9357  TIP3      OH2            -4.0154687078       32.9590936235        9.1439558414  W2        9357            0.0000000000
     28070      9357  TIP3      H1             -3.6621587078       32.5790736235        9.9483058414  W2        9357            0.0000000000
     28071      9357  TIP3      H2             -4.9641187078       32.8655736235        9.2308858414  W2        9357            0.0000000000
     28072      9358  TIP3      OH2            -3.5599387078       36.5819936235       22.5395358414  W2        9358            0.0000000000
     28073      9358  TIP3      H1             -4.1616187078       36.0262836235       22.0441658414  W2        9358            0.0000000000
     28074      9358  TIP3      H2             -3.2785687078       37.2489736235       21.9132758414  W2        9358            0.0000000000
     28075      9359  TIP3      OH2           -15.4373487078       23.8147636235       21.9467958414  W2        9359            0.0000000000
     28076      9359  TIP3      H1            -16.3301187078       24.1533036235       21.8791958414  W2        9359            0.0000000000
     28077      9359  TIP3      H2            -15.5360687078       22.9593736235       22.3648758414  W2        9359            0.0000000000
     28078      9360  TIP3      OH2            -3.1495387078       31.6312936235       11.3707458414  W2        9360            0.0000000000
     28079      9360  TIP3      H1             -3.4267787078       30.9032236235       11.9268558414  W2        9360            0.0000000000
     28080      9360  TIP3      H2             -2.2222387078       31.7504936235       11.5760058414  W2        9360            0.0000000000
     28081      9361  TIP3      OH2           -15.7861487078       35.6192036235       20.3817358414  W2        9361            0.0000000000
     28082      9361  TIP3      H1            -15.5691187078       34.6874436235       20.3507058414  W2        9361            0.0000000000
     28083      9361  TIP3      H2            -15.5397987078       35.8937036235       21.2650158414  W2        9361            0.0000000000
     28084      9362  TIP3      OH2            -9.9246887078       34.0707036235        7.5909558414  W2        9362            0.0000000000
     28085      9362  TIP3      H1             -9.6857087078       33.3225136235        7.0438458414  W2        9362            0.0000000000
     28086      9362  TIP3      H2            -10.1935587078       33.6828736235        8.4237358414  W2        9362            0.0000000000
     28087      9363  TIP3      OH2           -10.9876287078       33.6410836235       10.0472158414  W2        9363            0.0000000000
     28088      9363  TIP3      H1            -10.8408287078       33.1210636235       10.8373058414  W2        9363            0.0000000000
     28089      9363  TIP3      H2            -10.9904587078       34.5478436235       10.3538058414  W2        9363            0.0000000000
     28090      9364  TIP3      OH2           -14.5345187078       30.8934136235       10.5577558414  W2        9364            0.0000000000
     28091      9364  TIP3      H1            -15.2205887078       31.2456636235       11.1247258414  W2        9364            0.0000000000
     28092      9364  TIP3      H2            -14.0117287078       31.6563736235       10.3111858414  W2        9364            0.0000000000
     28093      9365  TIP3      OH2            -6.7030087078       23.5557936235       20.8366558414  W2        9365            0.0000000000
     28094      9365  TIP3      H1             -6.0042187078       23.6296636235       21.4866258414  W2        9365            0.0000000000
     28095      9365  TIP3      H2             -7.0838687078       22.6912936235       20.9909458414  W2        9365            0.0000000000
     28096      9366  TIP3      OH2            -5.9185187078       23.2079636235       11.9338858414  W2        9366            0.0000000000
     28097      9366  TIP3      H1             -5.6986887078       23.6795036235       11.1304258414  W2        9366            0.0000000000
     28098      9366  TIP3      H2             -5.3601187078       23.6022236235       12.6039458414  W2        9366            0.0000000000
     28099      9367  TIP3      OH2            -8.2499087078       35.3384436235       10.7966358414  W2        9367            0.0000000000
     28100      9367  TIP3      H1             -9.0662987078       35.8354136235       10.8490658414  W2        9367            0.0000000000
     28101      9367  TIP3      H2             -7.7202787078       35.8137936235       10.1565158414  W2        9367            0.0000000000
     28102      9368  TIP3      OH2            -8.7185287078       24.9358436235       12.7687258414  W2        9368            0.0000000000
     28103      9368  TIP3      H1             -7.9062687078       25.4401636235       12.8148958414  W2        9368            0.0000000000
     28104      9368  TIP3      H2             -8.9632287078       24.7908136235       13.6826858414  W2        9368            0.0000000000
     28105      9369  TIP3      OH2            -8.1828887078       25.9221136235       21.9533858414  W2        9369            0.0000000000
     28106      9369  TIP3      H1             -8.0638587078       26.4956536235       22.7104258414  W2        9369            0.0000000000
     28107      9369  TIP3      H2             -7.5274287078       25.2340536235       22.0681658414  W2        9369            0.0000000000
     28108      9370  TIP3      OH2            -7.8348587078       22.0171436235       13.7068358414  W2        9370            0.0000000000
     28109      9370  TIP3      H1             -8.1815087078       22.6342036235       14.3512658414  W2        9370            0.0000000000
     28110      9370  TIP3      H2             -7.1761687078       22.5177136235       13.2253858414  W2        9370            0.0000000000
     28111      9371  TIP3      OH2           -10.9115987078       36.3821636235       10.7783258414  W2        9371            0.0000000000
     28112      9371  TIP3      H1            -10.7507287078       37.1819136235       10.2775858414  W2        9371            0.0000000000
     28113      9371  TIP3      H2            -11.1088187078       36.6887636235       11.6633858414  W2        9371            0.0000000000
     28114      9372  TIP3      OH2           -12.1771587078       23.0800836235       10.3940858414  W2        9372            0.0000000000
     28115      9372  TIP3      H1            -12.2606787078       23.9683936235       10.7407258414  W2        9372            0.0000000000
     28116      9372  TIP3      H2            -11.2871287078       22.8147536235       10.6257658414  W2        9372            0.0000000000
     28117      9373  TIP3      OH2            -1.9783087078       23.8291436235       22.7883558414  W2        9373            0.0000000000
     28118      9373  TIP3      H1             -2.8947287078       24.0913136235       22.7007258414  W2        9373            0.0000000000
     28119      9373  TIP3      H2             -1.6428087078       23.8260436235       21.8918858414  W2        9373            0.0000000000
     28120      9374  TIP3      OH2            -3.3762087078       27.5792436235       16.8840858414  W2        9374            0.0000000000
     28121      9374  TIP3      H1             -4.1737687078       27.1642636235       16.5555858414  W2        9374            0.0000000000
     28122      9374  TIP3      H2             -2.9310987078       26.8886136235       17.3751358414  W2        9374            0.0000000000
     28123      9375  TIP3      OH2           -13.9186287078       33.5073036235        9.4545358414  W2        9375            0.0000000000
     28124      9375  TIP3      H1            -13.3264787078       34.2067836235        9.7307758414  W2        9375            0.0000000000
     28125      9375  TIP3      H2            -13.4593287078       33.0742536235        8.7349958414  W2        9375            0.0000000000
     28126      9376  TIP3      OH2           -15.6027087078       26.1716036235        8.5704758414  W2        9376            0.0000000000
     28127      9376  TIP3      H1            -15.6474487078       27.1109136235        8.7491758414  W2        9376            0.0000000000
     28128      9376  TIP3      H2            -16.4903887078       25.9360936235        8.3006858414  W2        9376            0.0000000000
     28129      9377  TIP3      OH2           -14.7945087078       20.9532636235       17.2435758414  W2        9377            0.0000000000
     28130      9377  TIP3      H1            -15.0235287078       21.0125136235       16.3160758414  W2        9377            0.0000000000
     28131      9377  TIP3      H2            -15.2371687078       20.1618136235       17.5499858414  W2        9377            0.0000000000
     28132      9378  TIP3      OH2           -15.8641787078       34.8939736235       13.4041558414  W2        9378            0.0000000000
     28133      9378  TIP3      H1            -16.6963187078       35.3662436235       13.4312958414  W2        9378            0.0000000000
     28134      9378  TIP3      H2            -15.3183487078       35.4037336235       12.8054658414  W2        9378            0.0000000000
     28135      9379  TIP3      OH2           -11.9784687078       36.4257836235       26.3543758414  W2        9379            0.0000000000
     28136      9379  TIP3      H1            -11.2107487078       35.9668636235       26.6952958414  W2        9379            0.0000000000
     28137      9379  TIP3      H2            -11.9998487078       36.1997636235       25.4244958414  W2        9379            0.0000000000
     28138      9380  TIP3      OH2            -7.8865087078       35.9338436235        7.7295558414  W2        9380            0.0000000000
     28139      9380  TIP3      H1             -8.5304087078       35.3027036235        8.0509258414  W2        9380            0.0000000000
     28140      9380  TIP3      H2             -7.1246787078       35.4026436235        7.4979058414  W2        9380            0.0000000000
     28141      9381  TIP3      OH2            -5.4015987078       34.8058936235       25.0835258414  W2        9381            0.0000000000
     28142      9381  TIP3      H1             -5.7526487078       33.9491936235       25.3265658414  W2        9381            0.0000000000
     28143      9381  TIP3      H2             -4.6752787078       34.9485636235       25.6904258414  W2        9381            0.0000000000
     28144      9382  TIP3      OH2            -3.2822187078       35.7508336235        7.9633558414  W2        9382            0.0000000000
     28145      9382  TIP3      H1             -2.9991787078       34.9563536235        8.4160458414  W2        9382            0.0000000000
     28146      9382  TIP3      H2             -2.5424287078       35.9839336235        7.4024658414  W2        9382            0.0000000000
     28147      9383  TIP3      OH2           -16.6688587078       31.3167536235       25.6883858414  W2        9383            0.0000000000
     28148      9383  TIP3      H1            -16.5248087078       30.4148236235       25.4020558414  W2        9383            0.0000000000
     28149      9383  TIP3      H2            -17.4411187078       31.6029636235       25.2006158414  W2        9383            0.0000000000
     28150      9384  TIP3      OH2           -12.3274887078       31.6603236235        7.8208458414  W2        9384            0.0000000000
     28151      9384  TIP3      H1            -12.2630787078       30.8662836235        8.3514858414  W2        9384            0.0000000000
     28152      9384  TIP3      H2            -11.6745687078       31.5416036235        7.1310458414  W2        9384            0.0000000000
     28153      9385  TIP3      OH2           -10.0132487078       31.2865636235       25.1210258414  W2        9385            0.0000000000
     28154      9385  TIP3      H1            -10.3418687078       31.5573736235       24.2637658414  W2        9385            0.0000000000
     28155      9385  TIP3      H2             -9.8614287078       30.3455436235       25.0335258414  W2        9385            0.0000000000
     28156      9386  TIP3      OH2            -6.9751487078       32.7074936235        7.5566458414  W2        9386            0.0000000000
     28157      9386  TIP3      H1             -7.2437387078       32.8877036235        8.4575358414  W2        9386            0.0000000000
     28158      9386  TIP3      H2             -7.1815887078       31.7821136235        7.4252258414  W2        9386            0.0000000000
     28159      9387  TIP3      OH2            -4.2787287078       31.2022936235       22.5042558414  W2        9387            0.0000000000
     28160      9387  TIP3      H1             -3.5332487078       31.7906636235       22.3846558414  W2        9387            0.0000000000
     28161      9387  TIP3      H2             -5.0360487078       31.7842636235       22.5675658414  W2        9387            0.0000000000
     28162      9388  TIP3      OH2           -15.8362087078       28.5170836235       25.1083158414  W2        9388            0.0000000000
     28163      9388  TIP3      H1            -15.4280887078       27.6597436235       24.9873758414  W2        9388            0.0000000000
     28164      9388  TIP3      H2            -16.0964487078       28.5312136235       26.0293458414  W2        9388            0.0000000000
     28165      9389  TIP3      OH2           -11.1781087078       29.6329436235       10.1266458414  W2        9389            0.0000000000
     28166      9389  TIP3      H1            -11.6379087078       29.1487736235       10.8124958414  W2        9389            0.0000000000
     28167      9389  TIP3      H2            -10.9232387078       28.9644836235        9.4906958414  W2        9389            0.0000000000
     28168      9390  TIP3      OH2           -11.8891787078       27.5256536235       22.4826058414  W2        9390            0.0000000000
     28169      9390  TIP3      H1            -12.5075687078       28.2003136235       22.7630758414  W2        9390            0.0000000000
     28170      9390  TIP3      H2            -11.5450587078       27.8470436235       21.6492258414  W2        9390            0.0000000000
     28171      9391  TIP3      OH2           -10.1070687078       27.8761236235        8.3889658414  W2        9391            0.0000000000
     28172      9391  TIP3      H1            -10.2875687078       27.7212436235        7.4617958414  W2        9391            0.0000000000
     28173      9391  TIP3      H2             -9.1570187078       27.9839936235        8.4337558414  W2        9391            0.0000000000
     28174      9392  TIP3      OH2            -6.8693587078       29.9971836235       25.7600858414  W2        9392            0.0000000000
     28175      9392  TIP3      H1             -5.9162387078       30.0810936235       25.7326858414  W2        9392            0.0000000000
     28176      9392  TIP3      H2             -7.0298987078       29.2853636235       26.3795758414  W2        9392            0.0000000000
     28177      9393  TIP3      OH2            -0.7172387078       30.2305436235        7.8347758414  W2        9393            0.0000000000
     28178      9393  TIP3      H1             -0.9907587078       29.8060936235        7.0216058414  W2        9393            0.0000000000
     28179      9393  TIP3      H2             -0.6778287078       31.1619936235        7.6178158414  W2        9393            0.0000000000
     28180      9394  TIP3      OH2           -11.5498087078       24.8807336235       23.5649158414  W2        9394            0.0000000000
     28181      9394  TIP3      H1            -11.3997187078       24.1518636235       22.9628858414  W2        9394            0.0000000000
     28182      9394  TIP3      H2            -11.5475687078       25.6579036235       23.0061358414  W2        9394            0.0000000000
     28183      9395  TIP3      OH2           -11.1372387078       23.2503136235       21.0576558414  W2        9395            0.0000000000
     28184      9395  TIP3      H1            -10.6014887078       23.7019836235       20.4055858414  W2        9395            0.0000000000
     28185      9395  TIP3      H2            -11.9892787078       23.1422936235       20.6350658414  W2        9395            0.0000000000
     28186      9396  TIP3      OH2            -9.5553987078       28.6899336235       21.2971758414  W2        9396            0.0000000000
     28187      9396  TIP3      H1             -8.8049187078       28.5336836235       20.7239558414  W2        9396            0.0000000000
     28188      9396  TIP3      H2             -9.8945687078       29.5415936235       21.0217258414  W2        9396            0.0000000000
     28189      9397  TIP3      OH2            -5.1397787078       26.5051136235       26.3257058414  W2        9397            0.0000000000
     28190      9397  TIP3      H1             -4.9476487078       25.5740536235       26.2141558414  W2        9397            0.0000000000
     28191      9397  TIP3      H2             -4.2821487078       26.9300636235       26.3152458414  W2        9397            0.0000000000
     28192      9398  TIP3      OH2            -3.8230587078       29.2936336235       24.4029758414  W2        9398            0.0000000000
     28193      9398  TIP3      H1             -4.1045587078       30.0030936235       23.8253558414  W2        9398            0.0000000000
     28194      9398  TIP3      H2             -2.8806287078       29.2209336235       24.2520958414  W2        9398            0.0000000000
     28195      9399  TIP3      OH2           -13.0711787078       26.0790836235       25.4764758414  W2        9399            0.0000000000
     28196      9399  TIP3      H1            -13.8382787078       25.5465636235       25.2662358414  W2        9399            0.0000000000
     28197      9399  TIP3      H2            -12.3922787078       25.7691236235       24.8771058414  W2        9399            0.0000000000
     28198      9400  TIP3      OH2           -10.3316887078       20.7068836235       21.4890158414  W2        9400            0.0000000000
     28199      9400  TIP3      H1            -10.4297287078       21.6532036235       21.3836358414  W2        9400            0.0000000000
     28200      9400  TIP3      H2            -11.0740687078       20.3342636235       21.0133658414  W2        9400            0.0000000000
     28201      9401  TIP3      OH2            -9.0676387078       25.0284236235       25.0528558414  W2        9401            0.0000000000
     28202      9401  TIP3      H1             -9.3030987078       24.8090936235       25.9543458414  W2        9401            0.0000000000
     28203      9401  TIP3      H2             -9.8509487078       24.8215436235       24.5431058414  W2        9401            0.0000000000
     28204      9402  TIP3      OH2            -6.3519787078       24.1557736235       24.1282058414  W2        9402            0.0000000000
     28205      9402  TIP3      H1             -7.2994387078       24.1877436235       24.2605358414  W2        9402            0.0000000000
     28206      9402  TIP3      H2             -6.0393087078       23.5304836235       24.7820258414  W2        9402            0.0000000000
     28207      9403  TIP3      OH2            -4.7178287078       22.7898836235       26.1333958414  W2        9403            0.0000000000
     28208      9403  TIP3      H1             -4.8146487078       21.8376136235       26.1275858414  W2        9403            0.0000000000
     28209      9403  TIP3      H2             -5.0395187078       23.0585636235       26.9939458414  W2        9403            0.0000000000
     28210      9404  TIP3      OH2           -14.8908987078       23.9994636235       25.1809458414  W2        9404            0.0000000000
     28211      9404  TIP3      H1            -14.6791587078       23.2930736235       24.5706958414  W2        9404            0.0000000000
     28212      9404  TIP3      H2            -15.0021487078       23.5620636235       26.0250658414  W2        9404            0.0000000000
     28213      9405  TIP3      OH2           -10.1098787078       20.0006236235       24.1602958414  W2        9405            0.0000000000
     28214      9405  TIP3      H1             -9.3980387078       19.3608436235       24.1462058414  W2        9405            0.0000000000
     28215      9405  TIP3      H2            -10.2108387078       20.2674536235       23.2466058414  W2        9405            0.0000000000
     28216      9406  TIP3      OH2            -9.7561287078       21.6834636235       26.2139258414  W2        9406            0.0000000000
     28217      9406  TIP3      H1             -9.8879087078       21.2078436235       25.3937758414  W2        9406            0.0000000000
     28218      9406  TIP3      H2            -10.3553887078       22.4278236235       26.1586358414  W2        9406            0.0000000000
     28219      9407  TIP3      OH2           -16.6414087078       33.2028736235        8.8731358414  W2        9407            0.0000000000
     28220      9407  TIP3      H1            -15.7274887078       33.2817636235        9.1465258414  W2        9407            0.0000000000
     28221      9407  TIP3      H2            -16.6340987078       32.5158336235        8.2066958414  W2        9407            0.0000000000
     28222      9408  TIP3      OH2           -17.1224287078       36.6764236235       15.7551458414  W2        9408            0.0000000000
     28223      9408  TIP3      H1            -17.4567487078       35.7961536235       15.9271658414  W2        9408            0.0000000000
     28224      9408  TIP3      H2            -16.9001887078       37.0219236235       16.6197058414  W2        9408            0.0000000000
     28225      9409  TIP3      OH2            -1.5599287078       32.8429836235       26.2955658414  W2        9409            0.0000000000
     28226      9409  TIP3      H1             -2.4258187078       32.7379536235       26.6897958414  W2        9409            0.0000000000
     28227      9409  TIP3      H2             -1.1833387078       33.6013136235       26.7420358414  W2        9409            0.0000000000
     28228      9410  TIP3      OH2            -0.2589587078       31.0993536235       11.8098158414  W2        9410            0.0000000000
     28229      9410  TIP3      H1              0.5911812922       31.5204436235       11.9369758414  W2        9410            0.0000000000
     28230      9410  TIP3      H2             -0.2534487078       30.3593636235       12.4169558414  W2        9410            0.0000000000
     28231      9411  TIP3      OH2             0.1356012922       29.1530936235       13.6333858414  W2        9411            0.0000000000
     28232      9411  TIP3      H1             -0.5909387078       28.6733536235       14.0311458414  W2        9411            0.0000000000
     28233      9411  TIP3      H2              0.7169312922       29.3585636235       14.3655458414  W2        9411            0.0000000000
     28234      9412  TIP3      OH2            -0.1052787078       31.9378436235       18.5811458414  W2        9412            0.0000000000
     28235      9412  TIP3      H1              0.7281412922       31.5598436235       18.3005058414  W2        9412            0.0000000000
     28236      9412  TIP3      H2              0.0067512922       32.8809636235       18.4620558414  W2        9412            0.0000000000
     28237      9413  TIP3      OH2            -1.6190487078       34.8155936235       20.8879858414  W2        9413            0.0000000000
     28238      9413  TIP3      H1             -2.2665187078       35.1407436235       21.5135058414  W2        9413            0.0000000000
     28239      9413  TIP3      H2             -2.1366487078       34.3753636235       20.2138158414  W2        9413            0.0000000000
     28240      9414  TIP3      OH2             0.4039112922       29.0539436235       10.0245158414  W2        9414            0.0000000000
     28241      9414  TIP3      H1             -0.1179787078       29.4103536235        9.3056058414  W2        9414            0.0000000000
     28242      9414  TIP3      H2              0.3708312922       29.7287236235       10.7026058414  W2        9414            0.0000000000
     28243      9415  TIP3      OH2            -1.2471887078       26.2935036235        8.5752258414  W2        9415            0.0000000000
     28244      9415  TIP3      H1             -1.1507487078       26.9602036235        7.8951958414  W2        9415            0.0000000000
     28245      9415  TIP3      H2             -1.3872287078       25.4781336235        8.0937758414  W2        9415            0.0000000000
     28246      9416  TIP3      OH2            -2.0777187078       27.6737436235       14.1962558414  W2        9416            0.0000000000
     28247      9416  TIP3      H1             -2.2278387078       26.7286036235       14.1760358414  W2        9416            0.0000000000
     28248      9416  TIP3      H2             -2.4312687078       27.9548836235       15.0401658414  W2        9416            0.0000000000
     28249      9417  TIP3      OH2           -17.0424787078       29.7519636235       18.2066358414  W2        9417            0.0000000000
     28250      9417  TIP3      H1            -16.8581887078       29.6701336235       17.2709258414  W2        9417            0.0000000000
     28251      9417  TIP3      H2            -16.1931887078       29.6276636235       18.6302758414  W2        9417            0.0000000000
     28252      9418  TIP3      OH2            -1.2214287078       29.6440736235       23.8350858414  W2        9418            0.0000000000
     28253      9418  TIP3      H1             -0.6386987078       28.9093036235       24.0268058414  W2        9418            0.0000000000
     28254      9418  TIP3      H2             -0.6574987078       30.4161036235       23.8816658414  W2        9418            0.0000000000
     28255      9419  TIP3      OH2             0.2752812922       27.5466536235       24.5196258414  W2        9419            0.0000000000
     28256      9419  TIP3      H1             -0.5880487078       27.1678636235       24.3540958414  W2        9419            0.0000000000
     28257      9419  TIP3      H2              0.8796512922       26.8081336235       24.4452058414  W2        9419            0.0000000000
     28258      9420  TIP3      OH2            -1.9998087078       23.7014836235        7.6927758414  W2        9420            0.0000000000
     28259      9420  TIP3      H1             -1.3892287078       23.3301636235        8.3295958414  W2        9420            0.0000000000
     28260      9420  TIP3      H2             -2.8366587078       23.2801736235        7.8887758414  W2        9420            0.0000000000
     28261      9421  TIP3      OH2            -2.3672387078       25.2563236235       12.6587658414  W2        9421            0.0000000000
     28262      9421  TIP3      H1             -2.0875287078       24.3493636235       12.7829358414  W2        9421            0.0000000000
     28263      9421  TIP3      H2             -1.6080687078       25.6904736235       12.2696858414  W2        9421            0.0000000000
     28264      9422  TIP3      OH2            -1.7554087078       25.8380636235       18.0946558414  W2        9422            0.0000000000
     28265      9422  TIP3      H1             -0.8226087078       26.0500536235       18.0602558414  W2        9422            0.0000000000
     28266      9422  TIP3      H2             -1.9906587078       25.9392736235       19.0169558414  W2        9422            0.0000000000
     28267      9423  TIP3      OH2            -1.7262187078       26.5745936235       20.8705958414  W2        9423            0.0000000000
     28268      9423  TIP3      H1             -2.5690887078       26.8426336235       21.2365758414  W2        9423            0.0000000000
     28269      9423  TIP3      H2             -1.2837887078       27.3967836235       20.6597058414  W2        9423            0.0000000000
     28270      9424  TIP3      OH2           -17.4449987078       25.0224636235       24.3475158414  W2        9424            0.0000000000
     28271      9424  TIP3      H1            -16.5255087078       24.9002936235       24.5838258414  W2        9424            0.0000000000
     28272      9424  TIP3      H2            -17.8945487078       24.2724336235       24.7368658414  W2        9424            0.0000000000
     28273      9425  TIP3      OH2             0.5569412922       20.5546136235       26.2240958414  W2        9425            0.0000000000
     28274      9425  TIP3      H1              0.9066412922       19.9009636235       25.6185658414  W2        9425            0.0000000000
     28275      9425  TIP3      H2              0.7038912922       21.3920236235       25.7843558414  W2        9425            0.0000000000
     28276      9426  TIP3      OH2            -1.7537587078       22.5192536235       12.7069658414  W2        9426            0.0000000000
     28277      9426  TIP3      H1             -1.5712587078       22.0704036235       13.5324658414  W2        9426            0.0000000000
     28278      9426  TIP3      H2             -2.3534687078       21.9346936235       12.2434258414  W2        9426            0.0000000000
     28279      9427  TIP3      OH2           -16.2237487078       23.3346236235       17.2388058414  W2        9427            0.0000000000
     28280      9427  TIP3      H1            -15.7785887078       22.5428736235       17.5407758414  W2        9427            0.0000000000
     28281      9427  TIP3      H2            -15.7574487078       24.0511436235       17.6693658414  W2        9427            0.0000000000
     28282      9428  TIP3      OH2           -17.9197187078       26.3339236235       18.3078258414  W2        9428            0.0000000000
     28283      9428  TIP3      H1            -17.4277387078       26.1129736235       17.5170258414  W2        9428            0.0000000000
     28284      9428  TIP3      H2            -17.5576287078       27.1742636235       18.5887758414  W2        9428            0.0000000000
     28285      9429  TIP3      OH2             0.0766612922       22.6640736235       24.5732258414  W2        9429            0.0000000000
     28286      9429  TIP3      H1             -0.8407687078       22.9347836235       24.5375758414  W2        9429            0.0000000000
     28287      9429  TIP3      H2              0.1996012922       22.1289136235       23.7891958414  W2        9429            0.0000000000
     28288      9430  TIP3      OH2             0.1128612922       22.5870636235        9.2349958414  W2        9430            0.0000000000
     28289      9430  TIP3      H1              0.5251212922       21.8656336235        8.7597958414  W2        9430            0.0000000000
     28290      9430  TIP3      H2              0.7945112922       23.2565236235        9.2934258414  W2        9430            0.0000000000
     28291      9431  TIP3      OH2           -17.6060687078       22.5918336235       12.3620658414  W2        9431            0.0000000000
     28292      9431  TIP3      H1            -18.5312287078       22.8004936235       12.2326158414  W2        9431            0.0000000000
     28293      9431  TIP3      H2            -17.1520787078       23.0759136235       11.6722958414  W2        9431            0.0000000000
     28294      9432  TIP3      OH2           -17.6425287078       21.3297336235       20.7063158414  W2        9432            0.0000000000
     28295      9432  TIP3      H1            -18.3074787078       21.0837636235       21.3494058414  W2        9432            0.0000000000
     28296      9432  TIP3      H2            -18.0853987078       21.9517736235       20.1291158414  W2        9432            0.0000000000
     28297      9433  TIP3      OH2           -15.4505987078       34.5051436235       24.8508958414  W2        9433            0.0000000000
     28298      9433  TIP3      H1            -16.2713487078       34.6797936235       24.3903658414  W2        9433            0.0000000000
     28299      9433  TIP3      H2            -15.7028187078       34.4316136235       25.7713358414  W2        9433            0.0000000000
     28300      9434  TIP3      OH2           -12.4963087078       35.4792636235       21.1092958414  W2        9434            0.0000000000
     28301      9434  TIP3      H1            -12.9211987078       36.2891136235       20.8267558414  W2        9434            0.0000000000
     28302      9434  TIP3      H2            -11.5920287078       35.5646736235       20.8072758414  W2        9434            0.0000000000
     28303      9435  TIP3      OH2            -0.9227487078       20.7537036235       22.3923058414  W2        9435            0.0000000000
     28304      9435  TIP3      H1             -1.7353987078       21.0787336235       22.0047758414  W2        9435            0.0000000000
     28305      9435  TIP3      H2             -0.6898987078       19.9935536235       21.8592158414  W2        9435            0.0000000000
     28306      9436  TIP3      OH2           -13.5385187078       36.0687736235       16.7219958414  W2        9436            0.0000000000
     28307      9436  TIP3      H1            -13.7574487078       35.1525136235       16.8915958414  W2        9436            0.0000000000
     28308      9436  TIP3      H2            -12.7142987078       36.2088136235       17.1881358414  W2        9436            0.0000000000
     28309      9437  TIP3      OH2           -11.0012687078       36.5387036235       17.5707958414  W2        9437            0.0000000000
     28310      9437  TIP3      H1            -10.7886987078       35.6506036235       17.2838858414  W2        9437            0.0000000000
     28311      9437  TIP3      H2            -10.9367587078       36.5044736235       18.5251958414  W2        9437            0.0000000000
     28312      9438  TIP3      OH2            -7.4928987078       22.2027636235       16.7151258414  W2        9438            0.0000000000
     28313      9438  TIP3      H1             -8.1672187078       21.5733236235       16.9707058414  W2        9438            0.0000000000
     28314      9438  TIP3      H2             -6.9289787078       21.7186536235       16.1119158414  W2        9438            0.0000000000
     28315      9439  TIP3      OH2            -2.3501787078       20.3101636235       16.8278358414  W2        9439            0.0000000000
     28316      9439  TIP3      H1             -1.7464187078       20.8577036235       16.3259358414  W2        9439            0.0000000000
     28317      9439  TIP3      H2             -3.2199787078       20.6292036235       16.5872458414  W2        9439            0.0000000000
     28318      9440  TIP3      OH2            -0.6231387078       21.4490336235       15.1609258414  W2        9440            0.0000000000
     28319      9440  TIP3      H1             -0.0113887078       20.9346036235       14.6342858414  W2        9440            0.0000000000
     28320      9440  TIP3      H2             -0.2407987078       22.3262436235       15.1843658414  W2        9440            0.0000000000
     28321      9441  TIP3      OH2           -15.1661487078       20.8367936235       14.5371158414  W2        9441            0.0000000000
     28322      9441  TIP3      H1            -15.9431687078       20.6022836235       14.0297058414  W2        9441            0.0000000000
     28323      9441  TIP3      H2            -14.6357887078       20.0400036235       14.5459158414  W2        9441            0.0000000000
     28324      9442  TIP3      OH2           -16.3298087078       20.6346036235       10.3407258414  W2        9442            0.0000000000
     28325      9442  TIP3      H1            -15.8907387078       21.2456536235        9.7490758414  W2        9442            0.0000000000
     28326      9442  TIP3      H2            -16.9635687078       21.1730136235       10.8147258414  W2        9442            0.0000000000
     28327      9443  TIP3      OH2           -10.5868887078       20.7635036235       14.3504258414  W2        9443            0.0000000000
     28328      9443  TIP3      H1             -9.7125487078       21.1519336235       14.3208558414  W2        9443            0.0000000000
     28329      9443  TIP3      H2            -10.7228087078       20.5482836235       15.2731458414  W2        9443            0.0000000000
     28330      9444  TIP3      OH2            -5.0300487078       20.7934836235       15.9995958414  W2        9444            0.0000000000
     28331      9444  TIP3      H1             -4.9538887078       20.8886436235       15.0501958414  W2        9444            0.0000000000
     28332      9444  TIP3      H2             -5.3051287078       19.8857736235       16.1285058414  W2        9444            0.0000000000
     28333      9445  TIP3      OH2            -3.6767887078       20.8192636235       11.6920958414  W2        9445            0.0000000000
     28334      9445  TIP3      H1             -4.3796787078       21.4341836235       11.4822358414  W2        9445            0.0000000000
     28335      9445  TIP3      H2             -4.1216487078       19.9819336235       11.8231858414  W2        9445            0.0000000000
     28336      9446  TIP3      OH2           -16.4288587078       36.5828236235       11.2382358414  W2        9446            0.0000000000
     28337      9446  TIP3      H1            -17.1138687078       36.5447136235       10.5707458414  W2        9446            0.0000000000
     28338      9446  TIP3      H2            -16.4251387078       37.4955836235       11.5264458414  W2        9446            0.0000000000
     28339      9447  TIP3      OH2           -14.4688987078       22.5507536235        8.7831358414  W2        9447            0.0000000000
     28340      9447  TIP3      H1            -13.9775587078       21.9209936235        8.2556858414  W2        9447            0.0000000000
     28341      9447  TIP3      H2            -13.8452687078       22.8466936235        9.4462558414  W2        9447            0.0000000000
     28342      9448  TIP3      OH2            -9.4428887078       22.8439036235       11.2401858414  W2        9448            0.0000000000
     28343      9448  TIP3      H1             -9.2647587078       22.1972236235       11.9230458414  W2        9448            0.0000000000
     28344      9448  TIP3      H2             -9.4962687078       23.6776736235       11.7072958414  W2        9448            0.0000000000
     28345      9449  TIP3      OH2           -15.2083487078       21.3509836235       24.0547358414  W2        9449            0.0000000000
     28346      9449  TIP3      H1            -15.5745287078       20.5852436235       24.4972058414  W2        9449            0.0000000000
     28347      9449  TIP3      H2            -14.2954987078       21.3800036235       24.3412458414  W2        9449            0.0000000000
     28348      9450  TIP3      OH2           -13.2352687078       20.7014236235       25.5904458414  W2        9450            0.0000000000
     28349      9450  TIP3      H1            -12.3369087078       20.4274436235       25.4057858414  W2        9450            0.0000000000
     28350      9450  TIP3      H2            -13.6219587078       19.9590236235       26.0547058414  W2        9450            0.0000000000
     28351      9451  TIP3      OH2            -4.8140387078       20.0339536235       25.7727258414  W2        9451            0.0000000000
     28352      9451  TIP3      H1             -4.7373187078       19.6080236235       26.6264958414  W2        9451            0.0000000000
     28353      9451  TIP3      H2             -3.9203787078       20.0474236235       25.4300758414  W2        9451            0.0000000000
     28354      9452  TIP3      OH2            -1.6379287078       36.1065836235       24.4651458414  W2        9452            0.0000000000
     28355      9452  TIP3      H1             -2.4197387078       35.9203836235       23.9452058414  W2        9452            0.0000000000
     28356      9452  TIP3      H2             -1.7099387078       37.0360136235       24.6823958414  W2        9452            0.0000000000
     28357      9453  TIP3      OH2            12.7681112922       29.9930236235       14.4958658414  W2        9453            0.0000000000
     28358      9453  TIP3      H1             12.8572212922       30.9368436235       14.3635758414  W2        9453            0.0000000000
     28359      9453  TIP3      H2             12.1298712922       29.7176636235       13.8378058414  W2        9453            0.0000000000
     28360      9454  TIP3      OH2            11.7012412922       29.2480936235       17.9146858414  W2        9454            0.0000000000
     28361      9454  TIP3      H1             11.6629912922       28.6017236235       18.6196458414  W2        9454            0.0000000000
     28362      9454  TIP3      H2             11.3788912922       28.7815336235       17.1435558414  W2        9454            0.0000000000
     28363      9455  TIP3      OH2             4.0697412922       28.8623036235       19.5076758414  W2        9455            0.0000000000
     28364      9455  TIP3      H1              4.1109512922       28.2366336235       20.2309158414  W2        9455            0.0000000000
     28365      9455  TIP3      H2              4.7725112922       29.4861636235       19.6897158414  W2        9455            0.0000000000
     28366      9456  TIP3      OH2            15.4072612922       32.1871336235       16.2161958414  W2        9456            0.0000000000
     28367      9456  TIP3      H1             14.9665312922       31.4667336235       16.6667558414  W2        9456            0.0000000000
     28368      9456  TIP3      H2             15.3942312922       32.9078536235       16.8459658414  W2        9456            0.0000000000
     28369      9457  TIP3      OH2             4.9930512922       33.3121936235       18.0425858414  W2        9457            0.0000000000
     28370      9457  TIP3      H1              4.6235712922       32.5102436235       17.6730158414  W2        9457            0.0000000000
     28371      9457  TIP3      H2              5.9341612922       33.1436836235       18.0889258414  W2        9457            0.0000000000
     28372      9458  TIP3      OH2             1.6031012922       26.9724536235       13.4354658414  W2        9458            0.0000000000
     28373      9458  TIP3      H1              1.1554412922       27.8183236235       13.4171158414  W2        9458            0.0000000000
     28374      9458  TIP3      H2              1.0422212922       26.3928736235       12.9199758414  W2        9458            0.0000000000
     28375      9459  TIP3      OH2             2.3137112922       29.1344136235       15.5612658414  W2        9459            0.0000000000
     28376      9459  TIP3      H1              2.5270612922       28.3645736235       16.0885658414  W2        9459            0.0000000000
     28377      9459  TIP3      H2              3.0514712922       29.2240836235       14.9580258414  W2        9459            0.0000000000
     28378      9460  TIP3      OH2            10.0906812922       31.6802336235       18.3207858414  W2        9460            0.0000000000
     28379      9460  TIP3      H1             10.3944712922       30.9943736235       17.7261958414  W2        9460            0.0000000000
     28380      9460  TIP3      H2             10.8120812922       31.7991036235       18.9385858414  W2        9460            0.0000000000
     28381      9461  TIP3      OH2            18.7536612922       23.2817636235       19.1814058414  W2        9461            0.0000000000
     28382      9461  TIP3      H1             18.8028812922       23.8918836235       19.9173158414  W2        9461            0.0000000000
     28383      9461  TIP3      H2             19.1791712922       23.7428536235       18.4585158414  W2        9461            0.0000000000
     28384      9462  TIP3      OH2            13.2313812922       26.0744736235       18.6482658414  W2        9462            0.0000000000
     28385      9462  TIP3      H1             13.3739712922       25.1281736235       18.6684258414  W2        9462            0.0000000000
     28386      9462  TIP3      H2             13.1252812922       26.2814536235       17.7197558414  W2        9462            0.0000000000
     28387      9463  TIP3      OH2             6.3862112922       24.1761136235       15.9207458414  W2        9463            0.0000000000
     28388      9463  TIP3      H1              6.4293212922       25.0359636235       15.5023758414  W2        9463            0.0000000000
     28389      9463  TIP3      H2              5.9286212922       23.6235836235       15.2870658414  W2        9463            0.0000000000
     28390      9464  TIP3      OH2            14.1084812922       24.3066736235       14.3215758414  W2        9464            0.0000000000
     28391      9464  TIP3      H1             14.7549112922       23.9779936235       14.9463358414  W2        9464            0.0000000000
     28392      9464  TIP3      H2             14.6184212922       24.8245736235       13.6987158414  W2        9464            0.0000000000
     28393      9465  TIP3      OH2             3.0063612922       26.5726936235       16.6828858414  W2        9465            0.0000000000
     28394      9465  TIP3      H1              3.6600212922       26.0228636235       17.1148958414  W2        9465            0.0000000000
     28395      9465  TIP3      H2              3.0302912922       26.2985936235       15.7660858414  W2        9465            0.0000000000
     28396      9466  TIP3      OH2             8.1628112922       28.1228236235       15.8980358414  W2        9466            0.0000000000
     28397      9466  TIP3      H1              8.7789112922       27.5963636235       16.4074358414  W2        9466            0.0000000000
     28398      9466  TIP3      H2              7.5766912922       27.4826936235       15.4943958414  W2        9466            0.0000000000
     28399      9467  TIP3      OH2            19.1451212922       24.7596836235       21.4173858414  W2        9467            0.0000000000
     28400      9467  TIP3      H1             18.4565812922       25.4177536235       21.3220458414  W2        9467            0.0000000000
     28401      9467  TIP3      H2             19.1605812922       24.5624736235       22.3539258414  W2        9467            0.0000000000
     28402      9468  TIP3      OH2             5.1964012922       23.0939536235       19.9948258414  W2        9468            0.0000000000
     28403      9468  TIP3      H1              4.9775712922       23.6240136235       19.2284258414  W2        9468            0.0000000000
     28404      9468  TIP3      H2              4.5284912922       23.3205036235       20.6419658414  W2        9468            0.0000000000
     28405      9469  TIP3      OH2            12.5653812922       32.5940636235       13.5387358414  W2        9469            0.0000000000
     28406      9469  TIP3      H1             12.2698912922       32.2712936235       12.6874258414  W2        9469            0.0000000000
     28407      9469  TIP3      H2             12.2411612922       33.4937336235       13.5799958414  W2        9469            0.0000000000
     28408      9470  TIP3      OH2             7.7655412922       30.7695236235       20.2821958414  W2        9470            0.0000000000
     28409      9470  TIP3      H1              7.0254512922       31.3676736235       20.3857158414  W2        9470            0.0000000000
     28410      9470  TIP3      H2              8.4794912922       31.3234836235       19.9665558414  W2        9470            0.0000000000
     28411      9471  TIP3      OH2            15.8723212922       23.5976036235       16.3021658414  W2        9471            0.0000000000
     28412      9471  TIP3      H1             15.6571212922       22.8319436235       16.8347658414  W2        9471            0.0000000000
     28413      9471  TIP3      H2             16.5280612922       24.0700636235       16.8150158414  W2        9471            0.0000000000
     28414      9472  TIP3      OH2             4.7901312922       24.9861336235       17.9470458414  W2        9472            0.0000000000
     28415      9472  TIP3      H1              5.4037612922       25.6188936235       18.3202858414  W2        9472            0.0000000000
     28416      9472  TIP3      H2              5.3022012922       24.5136336235       17.2907358414  W2        9472            0.0000000000
     28417      9473  TIP3      OH2             6.1729712922       32.7338236235       21.0693458414  W2        9473            0.0000000000
     28418      9473  TIP3      H1              6.1677312922       33.6131736235       20.6912758414  W2        9473            0.0000000000
     28419      9473  TIP3      H2              5.3193812922       32.6502336235       21.4943358414  W2        9473            0.0000000000
     28420      9474  TIP3      OH2             2.2940612922       32.4046136235       11.8512758414  W2        9474            0.0000000000
     28421      9474  TIP3      H1              2.0221512922       32.6337136235       10.9625658414  W2        9474            0.0000000000
     28422      9474  TIP3      H2              2.3396312922       33.2424936235       12.3118058414  W2        9474            0.0000000000
     28423      9475  TIP3      OH2            15.9190312922       34.0262036235       18.5641258414  W2        9475            0.0000000000
     28424      9475  TIP3      H1             14.9774012922       34.0845936235       18.7258158414  W2        9475            0.0000000000
     28425      9475  TIP3      H2             16.1956412922       34.9322536235       18.4270958414  W2        9475            0.0000000000
     28426      9476  TIP3      OH2            16.2197312922       22.3127336235       19.9815158414  W2        9476            0.0000000000
     28427      9476  TIP3      H1             15.4836512922       22.9234436235       19.9436458414  W2        9476            0.0000000000
     28428      9476  TIP3      H2             16.9031312922       22.7276336235       19.4551558414  W2        9476            0.0000000000
     28429      9477  TIP3      OH2             9.2228712922       20.3994636235       17.4473158414  W2        9477            0.0000000000
     28430      9477  TIP3      H1              9.1052912922       19.4510636235       17.3931458414  W2        9477            0.0000000000
     28431      9477  TIP3      H2              8.3678812922       20.7320736235       17.7204258414  W2        9477            0.0000000000
     28432      9478  TIP3      OH2            14.1711512922       35.8075536235       15.1892858414  W2        9478            0.0000000000
     28433      9478  TIP3      H1             14.5963812922       35.1003436235       14.7042458414  W2        9478            0.0000000000
     28434      9478  TIP3      H2             14.4881512922       36.6088236235       14.7725058414  W2        9478            0.0000000000
     28435      9479  TIP3      OH2            15.3308012922       33.7084036235       13.6979458414  W2        9479            0.0000000000
     28436      9479  TIP3      H1             15.0732812922       33.0184136235       13.0865358414  W2        9479            0.0000000000
     28437      9479  TIP3      H2             15.4018812922       33.2655236235       14.5435358414  W2        9479            0.0000000000
     28438      9480  TIP3      OH2            17.0168212922       32.2750736235       22.1752958414  W2        9480            0.0000000000
     28439      9480  TIP3      H1             17.1564512922       31.6833236235       21.4359958414  W2        9480            0.0000000000
     28440      9480  TIP3      H2             17.1841012922       33.1476636235       21.8191758414  W2        9480            0.0000000000
     28441      9481  TIP3      OH2            11.4893612922       29.2370236235       11.9478958414  W2        9481            0.0000000000
     28442      9481  TIP3      H1             10.7779112922       29.7719936235       11.5959458414  W2        9481            0.0000000000
     28443      9481  TIP3      H2             12.1803212922       29.2922336235       11.2877858414  W2        9481            0.0000000000
     28444      9482  TIP3      OH2            11.5432812922       27.6944536235        8.9863958414  W2        9482            0.0000000000
     28445      9482  TIP3      H1             12.2442712922       27.7171436235        9.6377958414  W2        9482            0.0000000000
     28446      9482  TIP3      H2             11.8455712922       27.0664236235        8.3303258414  W2        9482            0.0000000000
     28447      9483  TIP3      OH2            18.8587512922       28.6148736235       20.2413358414  W2        9483            0.0000000000
     28448      9483  TIP3      H1             18.2061612922       29.3094336235       20.3304258414  W2        9483            0.0000000000
     28449      9483  TIP3      H2             19.3237812922       28.8249636235       19.4314958414  W2        9483            0.0000000000
     28450      9484  TIP3      OH2            14.8951312922       29.4463536235       12.8994858414  W2        9484            0.0000000000
     28451      9484  TIP3      H1             14.1632312922       29.6747236235       13.4725458414  W2        9484            0.0000000000
     28452      9484  TIP3      H2             15.3423512922       28.7326236235       13.3542358414  W2        9484            0.0000000000
     28453      9485  TIP3      OH2            14.7924812922       27.6206136235       21.9671858414  W2        9485            0.0000000000
     28454      9485  TIP3      H1             14.8723912922       28.3840536235       22.5390358414  W2        9485            0.0000000000
     28455      9485  TIP3      H2             14.1912512922       27.8998536235       21.2766958414  W2        9485            0.0000000000
     28456      9486  TIP3      OH2             6.5405012922       30.0769736235       14.7819858414  W2        9486            0.0000000000
     28457      9486  TIP3      H1              6.2100212922       29.7063136235       13.9636858414  W2        9486            0.0000000000
     28458      9486  TIP3      H2              7.1289112922       29.4063736235       15.1288158414  W2        9486            0.0000000000
     28459      9487  TIP3      OH2             7.9072512922       33.5050336235       17.4632058414  W2        9487            0.0000000000
     28460      9487  TIP3      H1              7.8123812922       32.9263436235       16.7066658414  W2        9487            0.0000000000
     28461      9487  TIP3      H2              8.6366112922       33.1336036235       17.9594858414  W2        9487            0.0000000000
     28462      9488  TIP3      OH2             6.9070512922       28.8455336235       18.4154858414  W2        9488            0.0000000000
     28463      9488  TIP3      H1              7.4723012922       28.9669536235       17.6526058414  W2        9488            0.0000000000
     28464      9488  TIP3      H2              7.2259412922       29.4830336235       19.0543358414  W2        9488            0.0000000000
     28465      9489  TIP3      OH2            13.2162712922       34.3487236235       19.1495358414  W2        9489            0.0000000000
     28466      9489  TIP3      H1             12.9759312922       35.0110336235       19.7974558414  W2        9489            0.0000000000
     28467      9489  TIP3      H2             13.0180912922       33.5142436235       19.5744958414  W2        9489            0.0000000000
     28468      9490  TIP3      OH2             7.7871212922       33.2448036235       23.1326758414  W2        9490            0.0000000000
     28469      9490  TIP3      H1              7.4758712922       34.0271236235       23.5879958414  W2        9490            0.0000000000
     28470      9490  TIP3      H2              7.1371412922       33.0917136235       22.4468758414  W2        9490            0.0000000000
     28471      9491  TIP3      OH2            13.7660812922       28.6086436235       10.5846058414  W2        9491            0.0000000000
     28472      9491  TIP3      H1             14.3456312922       28.7586736235       11.3314958414  W2        9491            0.0000000000
     28473      9491  TIP3      H2             14.1800812922       29.0793836235        9.8612458414  W2        9491            0.0000000000
     28474      9492  TIP3      OH2             4.7071112922       29.4429136235       22.3612458414  W2        9492            0.0000000000
     28475      9492  TIP3      H1              4.7774312922       30.0935936235       23.0597458414  W2        9492            0.0000000000
     28476      9492  TIP3      H2              3.8163312922       29.5456636235       22.0263358414  W2        9492            0.0000000000
     28477      9493  TIP3      OH2            11.4925712922       35.3454936235       14.0199158414  W2        9493            0.0000000000
     28478      9493  TIP3      H1             11.9663312922       35.6411236235       14.7973358414  W2        9493            0.0000000000
     28479      9493  TIP3      H2             10.9295012922       36.0836536235       13.7868758414  W2        9493            0.0000000000
     28480      9494  TIP3      OH2             6.0267112922       35.3163036235       23.8960558414  W2        9494            0.0000000000
     28481      9494  TIP3      H1              6.0342412922       35.1802736235       22.9486058414  W2        9494            0.0000000000
     28482      9494  TIP3      H2              5.1107512922       35.1991136235       24.1480558414  W2        9494            0.0000000000
     28483      9495  TIP3      OH2            17.4649212922       20.3586836235       10.3975758414  W2        9495            0.0000000000
     28484      9495  TIP3      H1             16.5649912922       20.4975836235       10.6926358414  W2        9495            0.0000000000
     28485      9495  TIP3      H2             17.7167612922       21.1901436235        9.9957458414  W2        9495            0.0000000000
     28486      9496  TIP3      OH2             5.5307712922       29.1464036235       12.3712658414  W2        9496            0.0000000000
     28487      9496  TIP3      H1              5.2389012922       29.9145736235       11.8803958414  W2        9496            0.0000000000
     28488      9496  TIP3      H2              4.8562912922       28.4870236235       12.2084058414  W2        9496            0.0000000000
     28489      9497  TIP3      OH2            18.6540612922       34.7249236235        8.7739658414  W2        9497            0.0000000000
     28490      9497  TIP3      H1             18.7274112922       35.6639436235        8.9444958414  W2        9497            0.0000000000
     28491      9497  TIP3      H2             19.5595712922       34.4197836235        8.7176958414  W2        9497            0.0000000000
     28492      9498  TIP3      OH2             1.6237812922       31.5093236235       21.1862458414  W2        9498            0.0000000000
     28493      9498  TIP3      H1              1.1226212922       31.4812636235       20.3712158414  W2        9498            0.0000000000
     28494      9498  TIP3      H2              1.6291512922       30.6036436235       21.4959758414  W2        9498            0.0000000000
     28495      9499  TIP3      OH2             1.3740512922       34.2897036235       18.0702658414  W2        9499            0.0000000000
     28496      9499  TIP3      H1              2.3201112922       34.1454036235       18.0512158414  W2        9499            0.0000000000
     28497      9499  TIP3      H2              1.2616812922       35.0739836235       18.6073858414  W2        9499            0.0000000000
     28498      9500  TIP3      OH2            19.5719012922       34.9556736235       23.7526358414  W2        9500            0.0000000000
     28499      9500  TIP3      H1             19.5225812922       34.0004836235       23.7153958414  W2        9500            0.0000000000
     28500      9500  TIP3      H2             18.7451312922       35.2232036235       24.1540158414  W2        9500            0.0000000000
     28501      9501  TIP3      OH2            10.5503012922       34.5295936235       22.6287758414  W2        9501            0.0000000000
     28502      9501  TIP3      H1             10.6377612922       35.3560536235       23.1036858414  W2        9501            0.0000000000
     28503      9501  TIP3      H2              9.6868112922       34.1999736235       22.8777058414  W2        9501            0.0000000000
     28504      9502  TIP3      OH2            16.7238812922       26.4489236235       24.2328558414  W2        9502            0.0000000000
     28505      9502  TIP3      H1             16.3165612922       26.9294836235       23.5121858414  W2        9502            0.0000000000
     28506      9502  TIP3      H2             16.7644512922       25.5435236235       23.9249358414  W2        9502            0.0000000000
     28507      9503  TIP3      OH2             3.8728312922       32.8328636235       22.2295258414  W2        9503            0.0000000000
     28508      9503  TIP3      H1              4.0889612922       32.4714236235       23.0891058414  W2        9503            0.0000000000
     28509      9503  TIP3      H2              3.0173012922       32.4582436235       22.0198758414  W2        9503            0.0000000000
     28510      9504  TIP3      OH2             6.4916312922       21.3029136235       18.2249458414  W2        9504            0.0000000000
     28511      9504  TIP3      H1              5.6300012922       21.2157336235       17.8172358414  W2        9504            0.0000000000
     28512      9504  TIP3      H2              6.4692012922       22.1589236235       18.6527058414  W2        9504            0.0000000000
     28513      9505  TIP3      OH2            11.1544112922       21.0249536235       21.5996458414  W2        9505            0.0000000000
     28514      9505  TIP3      H1             11.5747212922       20.6096636235       22.3527058414  W2        9505            0.0000000000
     28515      9505  TIP3      H2             10.2213712922       20.8462836235       21.7168458414  W2        9505            0.0000000000
     28516      9506  TIP3      OH2            14.4809012922       24.7804736235       22.4530958414  W2        9506            0.0000000000
     28517      9506  TIP3      H1             13.9668512922       24.6546936235       23.2506958414  W2        9506            0.0000000000
     28518      9506  TIP3      H2             14.3253712922       25.6927836235       22.2087158414  W2        9506            0.0000000000
     28519      9507  TIP3      OH2            15.2433912922       29.6414736235        8.2143958414  W2        9507            0.0000000000
     28520      9507  TIP3      H1             15.2854712922       29.4188636235        7.2843958414  W2        9507            0.0000000000
     28521      9507  TIP3      H2             16.0926012922       30.0401836235        8.4043858414  W2        9507            0.0000000000
     28522      9508  TIP3      OH2            10.8161412922       23.5172936235        8.8847258414  W2        9508            0.0000000000
     28523      9508  TIP3      H1             10.5626212922       23.5364536235        9.8075358414  W2        9508            0.0000000000
     28524      9508  TIP3      H2             10.5593512922       22.6458336235        8.5833458414  W2        9508            0.0000000000
     28525      9509  TIP3      OH2             6.5826412922       26.2683636235       19.3199658414  W2        9509            0.0000000000
     28526      9509  TIP3      H1              5.9408512922       26.2280936235       20.0289758414  W2        9509            0.0000000000
     28527      9509  TIP3      H2              6.6198412922       27.1948336235       19.0822658414  W2        9509            0.0000000000
     28528      9510  TIP3      OH2             6.5795512922       26.4893736235       14.2319658414  W2        9510            0.0000000000
     28529      9510  TIP3      H1              5.6868412922       26.1489836235       14.1733458414  W2        9510            0.0000000000
     28530      9510  TIP3      H2              7.0302112922       26.1124636235       13.4762858414  W2        9510            0.0000000000
     28531      9511  TIP3      OH2            12.1151012922       26.9054036235       13.0490458414  W2        9511            0.0000000000
     28532      9511  TIP3      H1             11.7061312922       27.7202636235       12.7575258414  W2        9511            0.0000000000
     28533      9511  TIP3      H2             12.8357212922       26.7654136235       12.4347558414  W2        9511            0.0000000000
     28534      9512  TIP3      OH2            11.2172612922       27.0810436235       24.5371158414  W2        9512            0.0000000000
     28535      9512  TIP3      H1             10.6546412922       26.3762036235       24.8578958414  W2        9512            0.0000000000
     28536      9512  TIP3      H2             12.0436012922       26.9602336235       25.0048758414  W2        9512            0.0000000000
     28537      9513  TIP3      OH2            13.1198712922       26.3514436235       15.8630158414  W2        9513            0.0000000000
     28538      9513  TIP3      H1             12.9243212922       26.9571236235       15.1480758414  W2        9513            0.0000000000
     28539      9513  TIP3      H2             13.3011312922       25.5179636235       15.4286458414  W2        9513            0.0000000000
     28540      9514  TIP3      OH2             4.3326912922       26.5887136235       21.1871658414  W2        9514            0.0000000000
     28541      9514  TIP3      H1              4.2946312922       26.9888736235       22.0558758414  W2        9514            0.0000000000
     28542      9514  TIP3      H2              3.8418012922       25.7719536235       21.2774558414  W2        9514            0.0000000000
     28543      9515  TIP3      OH2             7.6984312922       23.9629436235        7.9857658414  W2        9515            0.0000000000
     28544      9515  TIP3      H1              7.2675012922       23.5179536235        8.7155058414  W2        9515            0.0000000000
     28545      9515  TIP3      H2              6.9803012922       24.3345736235        7.4735158414  W2        9515            0.0000000000
     28546      9516  TIP3      OH2             0.9407712922       23.7048936235       15.0376358414  W2        9516            0.0000000000
     28547      9516  TIP3      H1              1.5715412922       23.6761036235       15.7570258414  W2        9516            0.0000000000
     28548      9516  TIP3      H2              1.3902012922       23.2797636235       14.3072258414  W2        9516            0.0000000000
     28549      9517  TIP3      OH2             2.2149812922       24.4510936235       10.4616758414  W2        9517            0.0000000000
     28550      9517  TIP3      H1              2.6891512922       25.0420836235        9.8767658414  W2        9517            0.0000000000
     28551      9517  TIP3      H2              1.4976212922       24.9813836235       10.8086858414  W2        9517            0.0000000000
     28552      9518  TIP3      OH2            12.3837912922       27.9895736235       20.5342558414  W2        9518            0.0000000000
     28553      9518  TIP3      H1             12.7072712922       27.3585436235       19.8913058414  W2        9518            0.0000000000
     28554      9518  TIP3      H2             11.9437212922       27.4547936235       21.1949958414  W2        9518            0.0000000000
     28555      9519  TIP3      OH2             9.1610812922       23.9171236235       15.3183758414  W2        9519            0.0000000000
     28556      9519  TIP3      H1              8.2501912922       23.9738036235       15.6069758414  W2        9519            0.0000000000
     28557      9519  TIP3      H2              9.6663712922       23.8566736235       16.1290958414  W2        9519            0.0000000000
     28558      9520  TIP3      OH2             3.9894212922       25.5457536235       14.1451358414  W2        9520            0.0000000000
     28559      9520  TIP3      H1              3.1002212922       25.6453036235       13.8050958414  W2        9520            0.0000000000
     28560      9520  TIP3      H2              4.2859112922       24.7040536235       13.7989258414  W2        9520            0.0000000000
     28561      9521  TIP3      OH2             7.6426012922       25.5460136235       11.8015958414  W2        9521            0.0000000000
     28562      9521  TIP3      H1              8.5741512922       25.6750136235       11.9799058414  W2        9521            0.0000000000
     28563      9521  TIP3      H2              7.4276312922       26.2154436235       11.1520658414  W2        9521            0.0000000000
     28564      9522  TIP3      OH2            13.5662712922       23.1517536235       18.5825558414  W2        9522            0.0000000000
     28565      9522  TIP3      H1             12.8894312922       23.2830636235       19.2465258414  W2        9522            0.0000000000
     28566      9522  TIP3      H2             13.0807612922       22.9967036235       17.7723258414  W2        9522            0.0000000000
     28567      9523  TIP3      OH2             6.3166212922       26.7402336235        9.3682058414  W2        9523            0.0000000000
     28568      9523  TIP3      H1              5.7741312922       26.3606136235        8.6769658414  W2        9523            0.0000000000
     28569      9523  TIP3      H2              7.1501112922       26.9347036235        8.9396158414  W2        9523            0.0000000000
     28570      9524  TIP3      OH2             4.4517612922       31.2974236235       24.4673658414  W2        9524            0.0000000000
     28571      9524  TIP3      H1              5.1840012922       31.5520136235       25.0288158414  W2        9524            0.0000000000
     28572      9524  TIP3      H2              3.6716312922       31.5019636235       24.9829058414  W2        9524            0.0000000000
     28573      9525  TIP3      OH2            10.4810512922       26.7044236235       17.2053358414  W2        9525            0.0000000000
     28574      9525  TIP3      H1             11.0453912922       26.1580836235       16.6582958414  W2        9525            0.0000000000
     28575      9525  TIP3      H2             10.3333912922       26.1826136235       17.9940958414  W2        9525            0.0000000000
     28576      9526  TIP3      OH2             5.4830212922       22.8410336235       13.6238158414  W2        9526            0.0000000000
     28577      9526  TIP3      H1              5.1659712922       21.9385636235       13.5883558414  W2        9526            0.0000000000
     28578      9526  TIP3      H2              6.2644312922       22.8427736235       13.0709758414  W2        9526            0.0000000000
     28579      9527  TIP3      OH2             9.1076412922       25.0930336235       19.6193758414  W2        9527            0.0000000000
     28580      9527  TIP3      H1              8.2721712922       25.5469836235       19.7296158414  W2        9527            0.0000000000
     28581      9527  TIP3      H2              9.6317012922       25.3688836235       20.3713658414  W2        9527            0.0000000000
     28582      9528  TIP3      OH2             9.6519012922       31.3058036235       11.3040158414  W2        9528            0.0000000000
     28583      9528  TIP3      H1              8.9070012922       30.7983336235       10.9818058414  W2        9528            0.0000000000
     28584      9528  TIP3      H2              9.5176212922       31.3546036235       12.2504958414  W2        9528            0.0000000000
     28585      9529  TIP3      OH2            16.8017912922       30.4386236235       20.0907758414  W2        9529            0.0000000000
     28586      9529  TIP3      H1             17.4436712922       30.8952536235       19.5469958414  W2        9529            0.0000000000
     28587      9529  TIP3      H2             15.9714812922       30.5518636235       19.6281858414  W2        9529            0.0000000000
     28588      9530  TIP3      OH2            13.5495812922       24.1197936235        9.5032758414  W2        9530            0.0000000000
     28589      9530  TIP3      H1             12.6110012922       24.2313536235        9.3521558414  W2        9530            0.0000000000
     28590      9530  TIP3      H2             13.8467912922       24.9764836235        9.8098458414  W2        9530            0.0000000000
     28591      9531  TIP3      OH2            11.1711112922       31.4901336235       22.5409258414  W2        9531            0.0000000000
     28592      9531  TIP3      H1             10.8257212922       31.1083736235       23.3478858414  W2        9531            0.0000000000
     28593      9531  TIP3      H2             10.9711212922       32.4234936235       22.6122158414  W2        9531            0.0000000000
     28594      9532  TIP3      OH2            14.2679312922       25.9870636235       11.1640158414  W2        9532            0.0000000000
     28595      9532  TIP3      H1             15.1598312922       25.8495636235       11.4831358414  W2        9532            0.0000000000
     28596      9532  TIP3      H2             14.3242912922       26.7776736235       10.6273658414  W2        9532            0.0000000000
     28597      9533  TIP3      OH2             4.7767312922       30.6008036235       17.0738058414  W2        9533            0.0000000000
     28598      9533  TIP3      H1              5.5214512922       30.5983736235       16.4724558414  W2        9533            0.0000000000
     28599      9533  TIP3      H2              4.8543912922       29.7771836235       17.5553158414  W2        9533            0.0000000000
     28600      9534  TIP3      OH2            11.7773112922       32.7642336235       10.3294758414  W2        9534            0.0000000000
     28601      9534  TIP3      H1             11.4821512922       33.5910236235       10.7109558414  W2        9534            0.0000000000
     28602      9534  TIP3      H2             11.0743112922       32.1449236235       10.5256158414  W2        9534            0.0000000000
     28603      9535  TIP3      OH2             1.7847012922       29.0614936235       22.3886558414  W2        9535            0.0000000000
     28604      9535  TIP3      H1              2.0075612922       28.6434536235       23.2204058414  W2        9535            0.0000000000
     28605      9535  TIP3      H2              1.1827112922       28.4489936235       21.9659358414  W2        9535            0.0000000000
     28606      9536  TIP3      OH2             8.8011912922       28.5784836235       24.6016258414  W2        9536            0.0000000000
     28607      9536  TIP3      H1              8.5052712922       28.4127836235       23.7065358414  W2        9536            0.0000000000
     28608      9536  TIP3      H2              9.7327112922       28.3585136235       24.5910158414  W2        9536            0.0000000000
     28609      9537  TIP3      OH2            13.4214712922       33.9516836235       22.4914258414  W2        9537            0.0000000000
     28610      9537  TIP3      H1             12.5209012922       34.1349436235       22.2238158414  W2        9537            0.0000000000
     28611      9537  TIP3      H2             13.4555812922       34.2106136235       23.4123058414  W2        9537            0.0000000000
     28612      9538  TIP3      OH2            19.1528012922       26.1964736235       10.8586858414  W2        9538            0.0000000000
     28613      9538  TIP3      H1             18.5984312922       25.8002736235       10.1864358414  W2        9538            0.0000000000
     28614      9538  TIP3      H2             19.2531612922       27.1069936235       10.5810158414  W2        9538            0.0000000000
     28615      9539  TIP3      OH2            19.1160012922       31.9966436235       23.6958358414  W2        9539            0.0000000000
     28616      9539  TIP3      H1             18.2648512922       32.2350236235       23.3284758414  W2        9539            0.0000000000
     28617      9539  TIP3      H2             19.7063412922       31.9799636235       22.9425458414  W2        9539            0.0000000000
     28618      9540  TIP3      OH2            17.4479712922       34.9825136235       11.3238958414  W2        9540            0.0000000000
     28619      9540  TIP3      H1             17.0750812922       34.1568936235       11.6329558414  W2        9540            0.0000000000
     28620      9540  TIP3      H2             17.7253212922       34.7994536235       10.4262358414  W2        9540            0.0000000000
     28621      9541  TIP3      OH2            14.6083612922       29.7904636235       18.3450858414  W2        9541            0.0000000000
     28622      9541  TIP3      H1             13.6800512922       29.5586536235       18.3180158414  W2        9541            0.0000000000
     28623      9541  TIP3      H2             15.0594712922       29.0134436235       18.0149658414  W2        9541            0.0000000000
     28624      9542  TIP3      OH2             7.1516712922       34.1186236235       14.4779558414  W2        9542            0.0000000000
     28625      9542  TIP3      H1              7.6788912922       34.8920636235       14.2778358414  W2        9542            0.0000000000
     28626      9542  TIP3      H2              6.2715212922       34.3435436235       14.1763558414  W2        9542            0.0000000000
     28627      9543  TIP3      OH2             2.9064412922       28.9810336235        9.0651958414  W2        9543            0.0000000000
     28628      9543  TIP3      H1              3.5224312922       29.6077536235        9.4446758414  W2        9543            0.0000000000
     28629      9543  TIP3      H2              2.0447012922       29.2970136235        9.3368458414  W2        9543            0.0000000000
     28630      9544  TIP3      OH2             8.5789012922       31.7816136235       14.0543858414  W2        9544            0.0000000000
     28631      9544  TIP3      H1              8.3379012922       32.7070536235       14.0959158414  W2        9544            0.0000000000
     28632      9544  TIP3      H2              7.8382612922       31.3227436235       14.4507758414  W2        9544            0.0000000000
     28633      9545  TIP3      OH2             9.0935612922       35.9309736235       20.3694958414  W2        9545            0.0000000000
     28634      9545  TIP3      H1              9.4560312922       36.7855336235       20.1359358414  W2        9545            0.0000000000
     28635      9545  TIP3      H2              9.6250812922       35.6391336235       21.1101258414  W2        9545            0.0000000000
     28636      9546  TIP3      OH2             7.2619812922       36.8033736235       13.5996058414  W2        9546            0.0000000000
     28637      9546  TIP3      H1              6.3120312922       36.9091136235       13.6509358414  W2        9546            0.0000000000
     28638      9546  TIP3      H2              7.6137912922       37.6241136235       13.9443558414  W2        9546            0.0000000000
     28639      9547  TIP3      OH2            12.6376412922       32.0300436235       20.0700558414  W2        9547            0.0000000000
     28640      9547  TIP3      H1             12.2117712922       31.8022136235       20.8964558414  W2        9547            0.0000000000
     28641      9547  TIP3      H2             13.2182212922       31.2912236235       19.8875858414  W2        9547            0.0000000000
     28642      9548  TIP3      OH2            14.8405312922       32.9590936235        9.1439558414  W2        9548            0.0000000000
     28643      9548  TIP3      H1             15.1938412922       32.5790736235        9.9483058414  W2        9548            0.0000000000
     28644      9548  TIP3      H2             13.8918812922       32.8655736235        9.2308858414  W2        9548            0.0000000000
     28645      9549  TIP3      OH2            15.2960612922       36.5819936235       22.5395358414  W2        9549            0.0000000000
     28646      9549  TIP3      H1             14.6943812922       36.0262836235       22.0441658414  W2        9549            0.0000000000
     28647      9549  TIP3      H2             15.5774312922       37.2489736235       21.9132758414  W2        9549            0.0000000000
     28648      9550  TIP3      OH2             3.4186512922       23.8147636235       21.9467958414  W2        9550            0.0000000000
     28649      9550  TIP3      H1              2.5258812922       24.1533036235       21.8791958414  W2        9550            0.0000000000
     28650      9550  TIP3      H2              3.3199312922       22.9593736235       22.3648758414  W2        9550            0.0000000000
     28651      9551  TIP3      OH2            15.7064612922       31.6312936235       11.3707458414  W2        9551            0.0000000000
     28652      9551  TIP3      H1             15.4292212922       30.9032236235       11.9268558414  W2        9551            0.0000000000
     28653      9551  TIP3      H2             16.6337612922       31.7504936235       11.5760058414  W2        9551            0.0000000000
     28654      9552  TIP3      OH2             3.0698512922       35.6192036235       20.3817358414  W2        9552            0.0000000000
     28655      9552  TIP3      H1              3.2868812922       34.6874436235       20.3507058414  W2        9552            0.0000000000
     28656      9552  TIP3      H2              3.3162012922       35.8937036235       21.2650158414  W2        9552            0.0000000000
     28657      9553  TIP3      OH2             8.9313112922       34.0707036235        7.5909558414  W2        9553            0.0000000000
     28658      9553  TIP3      H1              9.1702912922       33.3225136235        7.0438458414  W2        9553            0.0000000000
     28659      9553  TIP3      H2              8.6624412922       33.6828736235        8.4237358414  W2        9553            0.0000000000
     28660      9554  TIP3      OH2             7.8683712922       33.6410836235       10.0472158414  W2        9554            0.0000000000
     28661      9554  TIP3      H1              8.0151712922       33.1210636235       10.8373058414  W2        9554            0.0000000000
     28662      9554  TIP3      H2              7.8655412922       34.5478436235       10.3538058414  W2        9554            0.0000000000
     28663      9555  TIP3      OH2             4.3214812922       30.8934136235       10.5577558414  W2        9555            0.0000000000
     28664      9555  TIP3      H1              3.6354112922       31.2456636235       11.1247258414  W2        9555            0.0000000000
     28665      9555  TIP3      H2              4.8442712922       31.6563736235       10.3111858414  W2        9555            0.0000000000
     28666      9556  TIP3      OH2            12.1529912922       23.5557936235       20.8366558414  W2        9556            0.0000000000
     28667      9556  TIP3      H1             12.8517812922       23.6296636235       21.4866258414  W2        9556            0.0000000000
     28668      9556  TIP3      H2             11.7721312922       22.6912936235       20.9909458414  W2        9556            0.0000000000
     28669      9557  TIP3      OH2            12.9374812922       23.2079636235       11.9338858414  W2        9557            0.0000000000
     28670      9557  TIP3      H1             13.1573112922       23.6795036235       11.1304258414  W2        9557            0.0000000000
     28671      9557  TIP3      H2             13.4958812922       23.6022236235       12.6039458414  W2        9557            0.0000000000
     28672      9558  TIP3      OH2            10.6060912922       35.3384436235       10.7966358414  W2        9558            0.0000000000
     28673      9558  TIP3      H1              9.7897012922       35.8354136235       10.8490658414  W2        9558            0.0000000000
     28674      9558  TIP3      H2             11.1357212922       35.8137936235       10.1565158414  W2        9558            0.0000000000
     28675      9559  TIP3      OH2            10.1374712922       24.9358436235       12.7687258414  W2        9559            0.0000000000
     28676      9559  TIP3      H1             10.9497312922       25.4401636235       12.8148958414  W2        9559            0.0000000000
     28677      9559  TIP3      H2              9.8927712922       24.7908136235       13.6826858414  W2        9559            0.0000000000
     28678      9560  TIP3      OH2            10.6731112922       25.9221136235       21.9533858414  W2        9560            0.0000000000
     28679      9560  TIP3      H1             10.7921412922       26.4956536235       22.7104258414  W2        9560            0.0000000000
     28680      9560  TIP3      H2             11.3285712922       25.2340536235       22.0681658414  W2        9560            0.0000000000
     28681      9561  TIP3      OH2            11.0211412922       22.0171436235       13.7068358414  W2        9561            0.0000000000
     28682      9561  TIP3      H1             10.6744912922       22.6342036235       14.3512658414  W2        9561            0.0000000000
     28683      9561  TIP3      H2             11.6798312922       22.5177136235       13.2253858414  W2        9561            0.0000000000
     28684      9562  TIP3      OH2             7.9444012922       36.3821636235       10.7783258414  W2        9562            0.0000000000
     28685      9562  TIP3      H1              8.1052712922       37.1819136235       10.2775858414  W2        9562            0.0000000000
     28686      9562  TIP3      H2              7.7471812922       36.6887636235       11.6633858414  W2        9562            0.0000000000
     28687      9563  TIP3      OH2             6.6788412922       23.0800836235       10.3940858414  W2        9563            0.0000000000
     28688      9563  TIP3      H1              6.5953212922       23.9683936235       10.7407258414  W2        9563            0.0000000000
     28689      9563  TIP3      H2              7.5688712922       22.8147536235       10.6257658414  W2        9563            0.0000000000
     28690      9564  TIP3      OH2            16.8776912922       23.8291436235       22.7883558414  W2        9564            0.0000000000
     28691      9564  TIP3      H1             15.9612712922       24.0913136235       22.7007258414  W2        9564            0.0000000000
     28692      9564  TIP3      H2             17.2131912922       23.8260436235       21.8918858414  W2        9564            0.0000000000
     28693      9565  TIP3      OH2            15.4797912922       27.5792436235       16.8840858414  W2        9565            0.0000000000
     28694      9565  TIP3      H1             14.6822312922       27.1642636235       16.5555858414  W2        9565            0.0000000000
     28695      9565  TIP3      H2             15.9249012922       26.8886136235       17.3751358414  W2        9565            0.0000000000
     28696      9566  TIP3      OH2             4.9373712922       33.5073036235        9.4545358414  W2        9566            0.0000000000
     28697      9566  TIP3      H1              5.5295212922       34.2067836235        9.7307758414  W2        9566            0.0000000000
     28698      9566  TIP3      H2              5.3966712922       33.0742536235        8.7349958414  W2        9566            0.0000000000
     28699      9567  TIP3      OH2             3.2532912922       26.1716036235        8.5704758414  W2        9567            0.0000000000
     28700      9567  TIP3      H1              3.2085512922       27.1109136235        8.7491758414  W2        9567            0.0000000000
     28701      9567  TIP3      H2              2.3656112922       25.9360936235        8.3006858414  W2        9567            0.0000000000
     28702      9568  TIP3      OH2             4.0614912922       20.9532636235       17.2435758414  W2        9568            0.0000000000
     28703      9568  TIP3      H1              3.8324712922       21.0125136235       16.3160758414  W2        9568            0.0000000000
     28704      9568  TIP3      H2              3.6188312922       20.1618136235       17.5499858414  W2        9568            0.0000000000
     28705      9569  TIP3      OH2             2.9918212922       34.8939736235       13.4041558414  W2        9569            0.0000000000
     28706      9569  TIP3      H1              2.1596812922       35.3662436235       13.4312958414  W2        9569            0.0000000000
     28707      9569  TIP3      H2              3.5376512922       35.4037336235       12.8054658414  W2        9569            0.0000000000
     28708      9570  TIP3      OH2             6.8775312922       36.4257836235       26.3543758414  W2        9570            0.0000000000
     28709      9570  TIP3      H1              7.6452512922       35.9668636235       26.6952958414  W2        9570            0.0000000000
     28710      9570  TIP3      H2              6.8561512922       36.1997636235       25.4244958414  W2        9570            0.0000000000
     28711      9571  TIP3      OH2            10.9694912922       35.9338436235        7.7295558414  W2        9571            0.0000000000
     28712      9571  TIP3      H1             10.3255912922       35.3027036235        8.0509258414  W2        9571            0.0000000000
     28713      9571  TIP3      H2             11.7313212922       35.4026436235        7.4979058414  W2        9571            0.0000000000
     28714      9572  TIP3      OH2            13.4544012922       34.8058936235       25.0835258414  W2        9572            0.0000000000
     28715      9572  TIP3      H1             13.1033512922       33.9491936235       25.3265658414  W2        9572            0.0000000000
     28716      9572  TIP3      H2             14.1807212922       34.9485636235       25.6904258414  W2        9572            0.0000000000
     28717      9573  TIP3      OH2            15.5737812922       35.7508336235        7.9633558414  W2        9573            0.0000000000
     28718      9573  TIP3      H1             15.8568212922       34.9563536235        8.4160458414  W2        9573            0.0000000000
     28719      9573  TIP3      H2             16.3135712922       35.9839336235        7.4024658414  W2        9573            0.0000000000
     28720      9574  TIP3      OH2             2.1871412922       31.3167536235       25.6883858414  W2        9574            0.0000000000
     28721      9574  TIP3      H1              2.3311912922       30.4148236235       25.4020558414  W2        9574            0.0000000000
     28722      9574  TIP3      H2              1.4148812922       31.6029636235       25.2006158414  W2        9574            0.0000000000
     28723      9575  TIP3      OH2             6.5285112922       31.6603236235        7.8208458414  W2        9575            0.0000000000
     28724      9575  TIP3      H1              6.5929212922       30.8662836235        8.3514858414  W2        9575            0.0000000000
     28725      9575  TIP3      H2              7.1814312922       31.5416036235        7.1310458414  W2        9575            0.0000000000
     28726      9576  TIP3      OH2             8.8427512922       31.2865636235       25.1210258414  W2        9576            0.0000000000
     28727      9576  TIP3      H1              8.5141312922       31.5573736235       24.2637658414  W2        9576            0.0000000000
     28728      9576  TIP3      H2              8.9945712922       30.3455436235       25.0335258414  W2        9576            0.0000000000
     28729      9577  TIP3      OH2            11.8808512922       32.7074936235        7.5566458414  W2        9577            0.0000000000
     28730      9577  TIP3      H1             11.6122612922       32.8877036235        8.4575358414  W2        9577            0.0000000000
     28731      9577  TIP3      H2             11.6744112922       31.7821136235        7.4252258414  W2        9577            0.0000000000
     28732      9578  TIP3      OH2            14.5772712922       31.2022936235       22.5042558414  W2        9578            0.0000000000
     28733      9578  TIP3      H1             15.3227512922       31.7906636235       22.3846558414  W2        9578            0.0000000000
     28734      9578  TIP3      H2             13.8199512922       31.7842636235       22.5675658414  W2        9578            0.0000000000
     28735      9579  TIP3      OH2             3.0197912922       28.5170836235       25.1083158414  W2        9579            0.0000000000
     28736      9579  TIP3      H1              3.4279112922       27.6597436235       24.9873758414  W2        9579            0.0000000000
     28737      9579  TIP3      H2              2.7595512922       28.5312136235       26.0293458414  W2        9579            0.0000000000
     28738      9580  TIP3      OH2             7.6778912922       29.6329436235       10.1266458414  W2        9580            0.0000000000
     28739      9580  TIP3      H1              7.2180912922       29.1487736235       10.8124958414  W2        9580            0.0000000000
     28740      9580  TIP3      H2              7.9327612922       28.9644836235        9.4906958414  W2        9580            0.0000000000
     28741      9581  TIP3      OH2             6.9668212922       27.5256536235       22.4826058414  W2        9581            0.0000000000
     28742      9581  TIP3      H1              6.3484312922       28.2003136235       22.7630758414  W2        9581            0.0000000000
     28743      9581  TIP3      H2              7.3109412922       27.8470436235       21.6492258414  W2        9581            0.0000000000
     28744      9582  TIP3      OH2             8.7489312922       27.8761236235        8.3889658414  W2        9582            0.0000000000
     28745      9582  TIP3      H1              8.5684312922       27.7212436235        7.4617958414  W2        9582            0.0000000000
     28746      9582  TIP3      H2              9.6989812922       27.9839936235        8.4337558414  W2        9582            0.0000000000
     28747      9583  TIP3      OH2            11.9866412922       29.9971836235       25.7600858414  W2        9583            0.0000000000
     28748      9583  TIP3      H1             12.9397612922       30.0810936235       25.7326858414  W2        9583            0.0000000000
     28749      9583  TIP3      H2             11.8261012922       29.2853636235       26.3795758414  W2        9583            0.0000000000
     28750      9584  TIP3      OH2            18.1387612922       30.2305436235        7.8347758414  W2        9584            0.0000000000
     28751      9584  TIP3      H1             17.8652412922       29.8060936235        7.0216058414  W2        9584            0.0000000000
     28752      9584  TIP3      H2             18.1781712922       31.1619936235        7.6178158414  W2        9584            0.0000000000
     28753      9585  TIP3      OH2             7.3061912922       24.8807336235       23.5649158414  W2        9585            0.0000000000
     28754      9585  TIP3      H1              7.4562812922       24.1518636235       22.9628858414  W2        9585            0.0000000000
     28755      9585  TIP3      H2              7.3084312922       25.6579036235       23.0061358414  W2        9585            0.0000000000
     28756      9586  TIP3      OH2             7.7187612922       23.2503136235       21.0576558414  W2        9586            0.0000000000
     28757      9586  TIP3      H1              8.2545112922       23.7019836235       20.4055858414  W2        9586            0.0000000000
     28758      9586  TIP3      H2              6.8667212922       23.1422936235       20.6350658414  W2        9586            0.0000000000
     28759      9587  TIP3      OH2             9.3006012922       28.6899336235       21.2971758414  W2        9587            0.0000000000
     28760      9587  TIP3      H1             10.0510812922       28.5336836235       20.7239558414  W2        9587            0.0000000000
     28761      9587  TIP3      H2              8.9614312922       29.5415936235       21.0217258414  W2        9587            0.0000000000
     28762      9588  TIP3      OH2            13.7162212922       26.5051136235       26.3257058414  W2        9588            0.0000000000
     28763      9588  TIP3      H1             13.9083512922       25.5740536235       26.2141558414  W2        9588            0.0000000000
     28764      9588  TIP3      H2             14.5738512922       26.9300636235       26.3152458414  W2        9588            0.0000000000
     28765      9589  TIP3      OH2            15.0329412922       29.2936336235       24.4029758414  W2        9589            0.0000000000
     28766      9589  TIP3      H1             14.7514412922       30.0030936235       23.8253558414  W2        9589            0.0000000000
     28767      9589  TIP3      H2             15.9753712922       29.2209336235       24.2520958414  W2        9589            0.0000000000
     28768      9590  TIP3      OH2             5.7848212922       26.0790836235       25.4764758414  W2        9590            0.0000000000
     28769      9590  TIP3      H1              5.0177212922       25.5465636235       25.2662358414  W2        9590            0.0000000000
     28770      9590  TIP3      H2              6.4637212922       25.7691236235       24.8771058414  W2        9590            0.0000000000
     28771      9591  TIP3      OH2             8.5243112922       20.7068836235       21.4890158414  W2        9591            0.0000000000
     28772      9591  TIP3      H1              8.4262712922       21.6532036235       21.3836358414  W2        9591            0.0000000000
     28773      9591  TIP3      H2              7.7819312922       20.3342636235       21.0133658414  W2        9591            0.0000000000
     28774      9592  TIP3      OH2             9.7883612922       25.0284236235       25.0528558414  W2        9592            0.0000000000
     28775      9592  TIP3      H1              9.5529012922       24.8090936235       25.9543458414  W2        9592            0.0000000000
     28776      9592  TIP3      H2              9.0050512922       24.8215436235       24.5431058414  W2        9592            0.0000000000
     28777      9593  TIP3      OH2            12.5040212922       24.1557736235       24.1282058414  W2        9593            0.0000000000
     28778      9593  TIP3      H1             11.5565612922       24.1877436235       24.2605358414  W2        9593            0.0000000000
     28779      9593  TIP3      H2             12.8166912922       23.5304836235       24.7820258414  W2        9593            0.0000000000
     28780      9594  TIP3      OH2            14.1381712922       22.7898836235       26.1333958414  W2        9594            0.0000000000
     28781      9594  TIP3      H1             14.0413512922       21.8376136235       26.1275858414  W2        9594            0.0000000000
     28782      9594  TIP3      H2             13.8164812922       23.0585636235       26.9939458414  W2        9594            0.0000000000
     28783      9595  TIP3      OH2             3.9651012922       23.9994636235       25.1809458414  W2        9595            0.0000000000
     28784      9595  TIP3      H1              4.1768412922       23.2930736235       24.5706958414  W2        9595            0.0000000000
     28785      9595  TIP3      H2              3.8538512922       23.5620636235       26.0250658414  W2        9595            0.0000000000
     28786      9596  TIP3      OH2             8.7461212922       20.0006236235       24.1602958414  W2        9596            0.0000000000
     28787      9596  TIP3      H1              9.4579612922       19.3608436235       24.1462058414  W2        9596            0.0000000000
     28788      9596  TIP3      H2              8.6451612922       20.2674536235       23.2466058414  W2        9596            0.0000000000
     28789      9597  TIP3      OH2             9.0998712922       21.6834636235       26.2139258414  W2        9597            0.0000000000
     28790      9597  TIP3      H1              8.9680912922       21.2078436235       25.3937758414  W2        9597            0.0000000000
     28791      9597  TIP3      H2              8.5006112922       22.4278236235       26.1586358414  W2        9597            0.0000000000
     28792      9598  TIP3      OH2             2.2145912922       33.2028736235        8.8731358414  W2        9598            0.0000000000
     28793      9598  TIP3      H1              3.1285112922       33.2817636235        9.1465258414  W2        9598            0.0000000000
     28794      9598  TIP3      H2              2.2219012922       32.5158336235        8.2066958414  W2        9598            0.0000000000
     28795      9599  TIP3      OH2             1.7335712922       36.6764236235       15.7551458414  W2        9599            0.0000000000
     28796      9599  TIP3      H1              1.3992512922       35.7961536235       15.9271658414  W2        9599            0.0000000000
     28797      9599  TIP3      H2              1.9558112922       37.0219236235       16.6197058414  W2        9599            0.0000000000
     28798      9600  TIP3      OH2            17.2960712922       32.8429836235       26.2955658414  W2        9600            0.0000000000
     28799      9600  TIP3      H1             16.4301812922       32.7379536235       26.6897958414  W2        9600            0.0000000000
     28800      9600  TIP3      H2             17.6726612922       33.6013136235       26.7420358414  W2        9600            0.0000000000
     28801      9601  TIP3      OH2            18.5970412922       31.0993536235       11.8098158414  W2        9601            0.0000000000
     28802      9601  TIP3      H1             19.4471812922       31.5204436235       11.9369758414  W2        9601            0.0000000000
     28803      9601  TIP3      H2             18.6025512922       30.3593636235       12.4169558414  W2        9601            0.0000000000
     28804      9602  TIP3      OH2            18.9916012922       29.1530936235       13.6333858414  W2        9602            0.0000000000
     28805      9602  TIP3      H1             18.2650612922       28.6733536235       14.0311458414  W2        9602            0.0000000000
     28806      9602  TIP3      H2             19.5729312922       29.3585636235       14.3655458414  W2        9602            0.0000000000
     28807      9603  TIP3      OH2            18.7507212922       31.9378436235       18.5811458414  W2        9603            0.0000000000
     28808      9603  TIP3      H1             19.5841412922       31.5598436235       18.3005058414  W2        9603            0.0000000000
     28809      9603  TIP3      H2             18.8627512922       32.8809636235       18.4620558414  W2        9603            0.0000000000
     28810      9604  TIP3      OH2            17.2369512922       34.8155936235       20.8879858414  W2        9604            0.0000000000
     28811      9604  TIP3      H1             16.5894812922       35.1407436235       21.5135058414  W2        9604            0.0000000000
     28812      9604  TIP3      H2             16.7193512922       34.3753636235       20.2138158414  W2        9604            0.0000000000
     28813      9605  TIP3      OH2            19.2599112922       29.0539436235       10.0245158414  W2        9605            0.0000000000
     28814      9605  TIP3      H1             18.7380212922       29.4103536235        9.3056058414  W2        9605            0.0000000000
     28815      9605  TIP3      H2             19.2268312922       29.7287236235       10.7026058414  W2        9605            0.0000000000
     28816      9606  TIP3      OH2            17.6088112922       26.2935036235        8.5752258414  W2        9606            0.0000000000
     28817      9606  TIP3      H1             17.7052512922       26.9602036235        7.8951958414  W2        9606            0.0000000000
     28818      9606  TIP3      H2             17.4687712922       25.4781336235        8.0937758414  W2        9606            0.0000000000
     28819      9607  TIP3      OH2            16.7782812922       27.6737436235       14.1962558414  W2        9607            0.0000000000
     28820      9607  TIP3      H1             16.6281612922       26.7286036235       14.1760358414  W2        9607            0.0000000000
     28821      9607  TIP3      H2             16.4247312922       27.9548836235       15.0401658414  W2        9607            0.0000000000
     28822      9608  TIP3      OH2             1.8135212922       29.7519636235       18.2066358414  W2        9608            0.0000000000
     28823      9608  TIP3      H1              1.9978112922       29.6701336235       17.2709258414  W2        9608            0.0000000000
     28824      9608  TIP3      H2              2.6628112922       29.6276636235       18.6302758414  W2        9608            0.0000000000
     28825      9609  TIP3      OH2            17.6345712922       29.6440736235       23.8350858414  W2        9609            0.0000000000
     28826      9609  TIP3      H1             18.2173012922       28.9093036235       24.0268058414  W2        9609            0.0000000000
     28827      9609  TIP3      H2             18.1985012922       30.4161036235       23.8816658414  W2        9609            0.0000000000
     28828      9610  TIP3      OH2            19.1312812922       27.5466536235       24.5196258414  W2        9610            0.0000000000
     28829      9610  TIP3      H1             18.2679512922       27.1678636235       24.3540958414  W2        9610            0.0000000000
     28830      9610  TIP3      H2             19.7356512922       26.8081336235       24.4452058414  W2        9610            0.0000000000
     28831      9611  TIP3      OH2            16.8561912922       23.7014836235        7.6927758414  W2        9611            0.0000000000
     28832      9611  TIP3      H1             17.4667712922       23.3301636235        8.3295958414  W2        9611            0.0000000000
     28833      9611  TIP3      H2             16.0193412922       23.2801736235        7.8887758414  W2        9611            0.0000000000
     28834      9612  TIP3      OH2            16.4887612922       25.2563236235       12.6587658414  W2        9612            0.0000000000
     28835      9612  TIP3      H1             16.7684712922       24.3493636235       12.7829358414  W2        9612            0.0000000000
     28836      9612  TIP3      H2             17.2479312922       25.6904736235       12.2696858414  W2        9612            0.0000000000
     28837      9613  TIP3      OH2            17.1005912922       25.8380636235       18.0946558414  W2        9613            0.0000000000
     28838      9613  TIP3      H1             18.0333912922       26.0500536235       18.0602558414  W2        9613            0.0000000000
     28839      9613  TIP3      H2             16.8653412922       25.9392736235       19.0169558414  W2        9613            0.0000000000
     28840      9614  TIP3      OH2            17.1297812922       26.5745936235       20.8705958414  W2        9614            0.0000000000
     28841      9614  TIP3      H1             16.2869112922       26.8426336235       21.2365758414  W2        9614            0.0000000000
     28842      9614  TIP3      H2             17.5722112922       27.3967836235       20.6597058414  W2        9614            0.0000000000
     28843      9615  TIP3      OH2             1.4110012922       25.0224636235       24.3475158414  W2        9615            0.0000000000
     28844      9615  TIP3      H1              2.3304912922       24.9002936235       24.5838258414  W2        9615            0.0000000000
     28845      9615  TIP3      H2              0.9614512922       24.2724336235       24.7368658414  W2        9615            0.0000000000
     28846      9616  TIP3      OH2            19.4129412922       20.5546136235       26.2240958414  W2        9616            0.0000000000
     28847      9616  TIP3      H1             19.7626412922       19.9009636235       25.6185658414  W2        9616            0.0000000000
     28848      9616  TIP3      H2             19.5598912922       21.3920236235       25.7843558414  W2        9616            0.0000000000
     28849      9617  TIP3      OH2            17.1022412922       22.5192536235       12.7069658414  W2        9617            0.0000000000
     28850      9617  TIP3      H1             17.2847412922       22.0704036235       13.5324658414  W2        9617            0.0000000000
     28851      9617  TIP3      H2             16.5025312922       21.9346936235       12.2434258414  W2        9617            0.0000000000
     28852      9618  TIP3      OH2             2.6322512922       23.3346236235       17.2388058414  W2        9618            0.0000000000
     28853      9618  TIP3      H1              3.0774112922       22.5428736235       17.5407758414  W2        9618            0.0000000000
     28854      9618  TIP3      H2              3.0985512922       24.0511436235       17.6693658414  W2        9618            0.0000000000
     28855      9619  TIP3      OH2             0.9362812922       26.3339236235       18.3078258414  W2        9619            0.0000000000
     28856      9619  TIP3      H1              1.4282612922       26.1129736235       17.5170258414  W2        9619            0.0000000000
     28857      9619  TIP3      H2              1.2983712922       27.1742636235       18.5887758414  W2        9619            0.0000000000
     28858      9620  TIP3      OH2            18.9326612922       22.6640736235       24.5732258414  W2        9620            0.0000000000
     28859      9620  TIP3      H1             18.0152312922       22.9347836235       24.5375758414  W2        9620            0.0000000000
     28860      9620  TIP3      H2             19.0556012922       22.1289136235       23.7891958414  W2        9620            0.0000000000
     28861      9621  TIP3      OH2            18.9688612922       22.5870636235        9.2349958414  W2        9621            0.0000000000
     28862      9621  TIP3      H1             19.3811212922       21.8656336235        8.7597958414  W2        9621            0.0000000000
     28863      9621  TIP3      H2             19.6505112922       23.2565236235        9.2934258414  W2        9621            0.0000000000
     28864      9622  TIP3      OH2             1.2499312922       22.5918336235       12.3620658414  W2        9622            0.0000000000
     28865      9622  TIP3      H1              0.3247712922       22.8004936235       12.2326158414  W2        9622            0.0000000000
     28866      9622  TIP3      H2              1.7039212922       23.0759136235       11.6722958414  W2        9622            0.0000000000
     28867      9623  TIP3      OH2             1.2134712922       21.3297336235       20.7063158414  W2        9623            0.0000000000
     28868      9623  TIP3      H1              0.5485212922       21.0837636235       21.3494058414  W2        9623            0.0000000000
     28869      9623  TIP3      H2              0.7706012922       21.9517736235       20.1291158414  W2        9623            0.0000000000
     28870      9624  TIP3      OH2             3.4054012922       34.5051436235       24.8508958414  W2        9624            0.0000000000
     28871      9624  TIP3      H1              2.5846512922       34.6797936235       24.3903658414  W2        9624            0.0000000000
     28872      9624  TIP3      H2              3.1531812922       34.4316136235       25.7713358414  W2        9624            0.0000000000
     28873      9625  TIP3      OH2             6.3596912922       35.4792636235       21.1092958414  W2        9625            0.0000000000
     28874      9625  TIP3      H1              5.9348012922       36.2891136235       20.8267558414  W2        9625            0.0000000000
     28875      9625  TIP3      H2              7.2639712922       35.5646736235       20.8072758414  W2        9625            0.0000000000
     28876      9626  TIP3      OH2            17.9332512922       20.7537036235       22.3923058414  W2        9626            0.0000000000
     28877      9626  TIP3      H1             17.1206012922       21.0787336235       22.0047758414  W2        9626            0.0000000000
     28878      9626  TIP3      H2             18.1661012922       19.9935536235       21.8592158414  W2        9626            0.0000000000
     28879      9627  TIP3      OH2             5.3174812922       36.0687736235       16.7219958414  W2        9627            0.0000000000
     28880      9627  TIP3      H1              5.0985512922       35.1525136235       16.8915958414  W2        9627            0.0000000000
     28881      9627  TIP3      H2              6.1417012922       36.2088136235       17.1881358414  W2        9627            0.0000000000
     28882      9628  TIP3      OH2             7.8547312922       36.5387036235       17.5707958414  W2        9628            0.0000000000
     28883      9628  TIP3      H1              8.0673012922       35.6506036235       17.2838858414  W2        9628            0.0000000000
     28884      9628  TIP3      H2              7.9192412922       36.5044736235       18.5251958414  W2        9628            0.0000000000
     28885      9629  TIP3      OH2            11.3631012922       22.2027636235       16.7151258414  W2        9629            0.0000000000
     28886      9629  TIP3      H1             10.6887812922       21.5733236235       16.9707058414  W2        9629            0.0000000000
     28887      9629  TIP3      H2             11.9270212922       21.7186536235       16.1119158414  W2        9629            0.0000000000
     28888      9630  TIP3      OH2            16.5058212922       20.3101636235       16.8278358414  W2        9630            0.0000000000
     28889      9630  TIP3      H1             17.1095812922       20.8577036235       16.3259358414  W2        9630            0.0000000000
     28890      9630  TIP3      H2             15.6360212922       20.6292036235       16.5872458414  W2        9630            0.0000000000
     28891      9631  TIP3      OH2            18.2328612922       21.4490336235       15.1609258414  W2        9631            0.0000000000
     28892      9631  TIP3      H1             18.8446112922       20.9346036235       14.6342858414  W2        9631            0.0000000000
     28893      9631  TIP3      H2             18.6152012922       22.3262436235       15.1843658414  W2        9631            0.0000000000
     28894      9632  TIP3      OH2             3.6898512922       20.8367936235       14.5371158414  W2        9632            0.0000000000
     28895      9632  TIP3      H1              2.9128312922       20.6022836235       14.0297058414  W2        9632            0.0000000000
     28896      9632  TIP3      H2              4.2202112922       20.0400036235       14.5459158414  W2        9632            0.0000000000
     28897      9633  TIP3      OH2             2.5261912922       20.6346036235       10.3407258414  W2        9633            0.0000000000
     28898      9633  TIP3      H1              2.9652612922       21.2456536235        9.7490758414  W2        9633            0.0000000000
     28899      9633  TIP3      H2              1.8924312922       21.1730136235       10.8147258414  W2        9633            0.0000000000
     28900      9634  TIP3      OH2             8.2691112922       20.7635036235       14.3504258414  W2        9634            0.0000000000
     28901      9634  TIP3      H1              9.1434512922       21.1519336235       14.3208558414  W2        9634            0.0000000000
     28902      9634  TIP3      H2              8.1331912922       20.5482836235       15.2731458414  W2        9634            0.0000000000
     28903      9635  TIP3      OH2            13.8259512922       20.7934836235       15.9995958414  W2        9635            0.0000000000
     28904      9635  TIP3      H1             13.9021112922       20.8886436235       15.0501958414  W2        9635            0.0000000000
     28905      9635  TIP3      H2             13.5508712922       19.8857736235       16.1285058414  W2        9635            0.0000000000
     28906      9636  TIP3      OH2            15.1792112922       20.8192636235       11.6920958414  W2        9636            0.0000000000
     28907      9636  TIP3      H1             14.4763212922       21.4341836235       11.4822358414  W2        9636            0.0000000000
     28908      9636  TIP3      H2             14.7343512922       19.9819336235       11.8231858414  W2        9636            0.0000000000
     28909      9637  TIP3      OH2             2.4271412922       36.5828236235       11.2382358414  W2        9637            0.0000000000
     28910      9637  TIP3      H1              1.7421312922       36.5447136235       10.5707458414  W2        9637            0.0000000000
     28911      9637  TIP3      H2              2.4308612922       37.4955836235       11.5264458414  W2        9637            0.0000000000
     28912      9638  TIP3      OH2             4.3871012922       22.5507536235        8.7831358414  W2        9638            0.0000000000
     28913      9638  TIP3      H1              4.8784412922       21.9209936235        8.2556858414  W2        9638            0.0000000000
     28914      9638  TIP3      H2              5.0107312922       22.8466936235        9.4462558414  W2        9638            0.0000000000
     28915      9639  TIP3      OH2             9.4131112922       22.8439036235       11.2401858414  W2        9639            0.0000000000
     28916      9639  TIP3      H1              9.5912412922       22.1972236235       11.9230458414  W2        9639            0.0000000000
     28917      9639  TIP3      H2              9.3597312922       23.6776736235       11.7072958414  W2        9639            0.0000000000
     28918      9640  TIP3      OH2             3.6476512922       21.3509836235       24.0547358414  W2        9640            0.0000000000
     28919      9640  TIP3      H1              3.2814712922       20.5852436235       24.4972058414  W2        9640            0.0000000000
     28920      9640  TIP3      H2              4.5605012922       21.3800036235       24.3412458414  W2        9640            0.0000000000
     28921      9641  TIP3      OH2             5.6207312922       20.7014236235       25.5904458414  W2        9641            0.0000000000
     28922      9641  TIP3      H1              6.5190912922       20.4274436235       25.4057858414  W2        9641            0.0000000000
     28923      9641  TIP3      H2              5.2340412922       19.9590236235       26.0547058414  W2        9641            0.0000000000
     28924      9642  TIP3      OH2            14.0419612922       20.0339536235       25.7727258414  W2        9642            0.0000000000
     28925      9642  TIP3      H1             14.1186812922       19.6080236235       26.6264958414  W2        9642            0.0000000000
     28926      9642  TIP3      H2             14.9356212922       20.0474236235       25.4300758414  W2        9642            0.0000000000
     28927      9643  TIP3      OH2            17.2180712922       36.1065836235       24.4651458414  W2        9643            0.0000000000
     28928      9643  TIP3      H1             16.4362612922       35.9203836235       23.9452058414  W2        9643            0.0000000000
     28929      9643  TIP3      H2             17.1460612922       37.0360136235       24.6823958414  W2        9643            0.0000000000
     28930      9644  TIP3      OH2            31.6241112922       29.9930236235       14.4958658414  W2        9644            0.0000000000
     28931      9644  TIP3      H1             31.7132212922       30.9368436235       14.3635758414  W2        9644            0.0000000000
     28932      9644  TIP3      H2             30.9858712922       29.7176636235       13.8378058414  W2        9644            0.0000000000
     28933      9645  TIP3      OH2            30.5572412922       29.2480936235       17.9146858414  W2        9645            0.0000000000
     28934      9645  TIP3      H1             30.5189912922       28.6017236235       18.6196458414  W2        9645            0.0000000000
     28935      9645  TIP3      H2             30.2348912922       28.7815336235       17.1435558414  W2        9645            0.0000000000
     28936      9646  TIP3      OH2            22.9257412922       28.8623036235       19.5076758414  W2        9646            0.0000000000
     28937      9646  TIP3      H1             22.9669512922       28.2366336235       20.2309158414  W2        9646            0.0000000000
     28938      9646  TIP3      H2             23.6285112922       29.4861636235       19.6897158414  W2        9646            0.0000000000
     28939      9647  TIP3      OH2            34.2632612922       32.1871336235       16.2161958414  W2        9647            0.0000000000
     28940      9647  TIP3      H1             33.8225312922       31.4667336235       16.6667558414  W2        9647            0.0000000000
     28941      9647  TIP3      H2             34.2502312922       32.9078536235       16.8459658414  W2        9647            0.0000000000
     28942      9648  TIP3      OH2            23.8490512922       33.3121936235       18.0425858414  W2        9648            0.0000000000
     28943      9648  TIP3      H1             23.4795712922       32.5102436235       17.6730158414  W2        9648            0.0000000000
     28944      9648  TIP3      H2             24.7901612922       33.1436836235       18.0889258414  W2        9648            0.0000000000
     28945      9649  TIP3      OH2            20.4591012922       26.9724536235       13.4354658414  W2        9649            0.0000000000
     28946      9649  TIP3      H1             20.0114412922       27.8183236235       13.4171158414  W2        9649            0.0000000000
     28947      9649  TIP3      H2             19.8982212922       26.3928736235       12.9199758414  W2        9649            0.0000000000
     28948      9650  TIP3      OH2            21.1697112922       29.1344136235       15.5612658414  W2        9650            0.0000000000
     28949      9650  TIP3      H1             21.3830612922       28.3645736235       16.0885658414  W2        9650            0.0000000000
     28950      9650  TIP3      H2             21.9074712922       29.2240836235       14.9580258414  W2        9650            0.0000000000
     28951      9651  TIP3      OH2            28.9466812922       31.6802336235       18.3207858414  W2        9651            0.0000000000
     28952      9651  TIP3      H1             29.2504712922       30.9943736235       17.7261958414  W2        9651            0.0000000000
     28953      9651  TIP3      H2             29.6680812922       31.7991036235       18.9385858414  W2        9651            0.0000000000
     28954      9652  TIP3      OH2            32.0873812922       26.0744736235       18.6482658414  W2        9652            0.0000000000
     28955      9652  TIP3      H1             32.2299712922       25.1281736235       18.6684258414  W2        9652            0.0000000000
     28956      9652  TIP3      H2             31.9812812922       26.2814536235       17.7197558414  W2        9652            0.0000000000
     28957      9653  TIP3      OH2            25.2422112922       24.1761136235       15.9207458414  W2        9653            0.0000000000
     28958      9653  TIP3      H1             25.2853212922       25.0359636235       15.5023758414  W2        9653            0.0000000000
     28959      9653  TIP3      H2             24.7846212922       23.6235836235       15.2870658414  W2        9653            0.0000000000
     28960      9654  TIP3      OH2            32.9644812922       24.3066736235       14.3215758414  W2        9654            0.0000000000
     28961      9654  TIP3      H1             33.6109112922       23.9779936235       14.9463358414  W2        9654            0.0000000000
     28962      9654  TIP3      H2             33.4744212922       24.8245736235       13.6987158414  W2        9654            0.0000000000
     28963      9655  TIP3      OH2            21.8623612922       26.5726936235       16.6828858414  W2        9655            0.0000000000
     28964      9655  TIP3      H1             22.5160212922       26.0228636235       17.1148958414  W2        9655            0.0000000000
     28965      9655  TIP3      H2             21.8862912922       26.2985936235       15.7660858414  W2        9655            0.0000000000
     28966      9656  TIP3      OH2            27.0188112922       28.1228236235       15.8980358414  W2        9656            0.0000000000
     28967      9656  TIP3      H1             27.6349112922       27.5963636235       16.4074358414  W2        9656            0.0000000000
     28968      9656  TIP3      H2             26.4326912922       27.4826936235       15.4943958414  W2        9656            0.0000000000
     28969      9657  TIP3      OH2            24.0524012922       23.0939536235       19.9948258414  W2        9657            0.0000000000
     28970      9657  TIP3      H1             23.8335712922       23.6240136235       19.2284258414  W2        9657            0.0000000000
     28971      9657  TIP3      H2             23.3844912922       23.3205036235       20.6419658414  W2        9657            0.0000000000
     28972      9658  TIP3      OH2            31.4213812922       32.5940636235       13.5387358414  W2        9658            0.0000000000
     28973      9658  TIP3      H1             31.1258912922       32.2712936235       12.6874258414  W2        9658            0.0000000000
     28974      9658  TIP3      H2             31.0971612922       33.4937336235       13.5799958414  W2        9658            0.0000000000
     28975      9659  TIP3      OH2            26.6215412922       30.7695236235       20.2821958414  W2        9659            0.0000000000
     28976      9659  TIP3      H1             25.8814512922       31.3676736235       20.3857158414  W2        9659            0.0000000000
     28977      9659  TIP3      H2             27.3354912922       31.3234836235       19.9665558414  W2        9659            0.0000000000
     28978      9660  TIP3      OH2            34.7283212922       23.5976036235       16.3021658414  W2        9660            0.0000000000
     28979      9660  TIP3      H1             34.5131212922       22.8319436235       16.8347658414  W2        9660            0.0000000000
     28980      9660  TIP3      H2             35.3840612922       24.0700636235       16.8150158414  W2        9660            0.0000000000
     28981      9661  TIP3      OH2            23.6461312922       24.9861336235       17.9470458414  W2        9661            0.0000000000
     28982      9661  TIP3      H1             24.2597612922       25.6188936235       18.3202858414  W2        9661            0.0000000000
     28983      9661  TIP3      H2             24.1582012922       24.5136336235       17.2907358414  W2        9661            0.0000000000
     28984      9662  TIP3      OH2            25.0289712922       32.7338236235       21.0693458414  W2        9662            0.0000000000
     28985      9662  TIP3      H1             25.0237312922       33.6131736235       20.6912758414  W2        9662            0.0000000000
     28986      9662  TIP3      H2             24.1753812922       32.6502336235       21.4943358414  W2        9662            0.0000000000
     28987      9663  TIP3      OH2            21.1500612922       32.4046136235       11.8512758414  W2        9663            0.0000000000
     28988      9663  TIP3      H1             20.8781512922       32.6337136235       10.9625658414  W2        9663            0.0000000000
     28989      9663  TIP3      H2             21.1956312922       33.2424936235       12.3118058414  W2        9663            0.0000000000
     28990      9664  TIP3      OH2            34.7750312922       34.0262036235       18.5641258414  W2        9664            0.0000000000
     28991      9664  TIP3      H1             33.8334012922       34.0845936235       18.7258158414  W2        9664            0.0000000000
     28992      9664  TIP3      H2             35.0516412922       34.9322536235       18.4270958414  W2        9664            0.0000000000
     28993      9665  TIP3      OH2            35.0757312922       22.3127336235       19.9815158414  W2        9665            0.0000000000
     28994      9665  TIP3      H1             34.3396512922       22.9234436235       19.9436458414  W2        9665            0.0000000000
     28995      9665  TIP3      H2             35.7591312922       22.7276336235       19.4551558414  W2        9665            0.0000000000
     28996      9666  TIP3      OH2            28.0788712922       20.3994636235       17.4473158414  W2        9666            0.0000000000
     28997      9666  TIP3      H1             27.9612912922       19.4510636235       17.3931458414  W2        9666            0.0000000000
     28998      9666  TIP3      H2             27.2238812922       20.7320736235       17.7204258414  W2        9666            0.0000000000
     28999      9667  TIP3      OH2            33.0271512922       35.8075536235       15.1892858414  W2        9667            0.0000000000
     29000      9667  TIP3      H1             33.4523812922       35.1003436235       14.7042458414  W2        9667            0.0000000000
     29001      9667  TIP3      H2             33.3441512922       36.6088236235       14.7725058414  W2        9667            0.0000000000
     29002      9668  TIP3      OH2            34.1868012922       33.7084036235       13.6979458414  W2        9668            0.0000000000
     29003      9668  TIP3      H1             33.9292812922       33.0184136235       13.0865358414  W2        9668            0.0000000000
     29004      9668  TIP3      H2             34.2578812922       33.2655236235       14.5435358414  W2        9668            0.0000000000
     29005      9669  TIP3      OH2            35.8728212922       32.2750736235       22.1752958414  W2        9669            0.0000000000
     29006      9669  TIP3      H1             36.0124512922       31.6833236235       21.4359958414  W2        9669            0.0000000000
     29007      9669  TIP3      H2             36.0401012922       33.1476636235       21.8191758414  W2        9669            0.0000000000
     29008      9670  TIP3      OH2            30.3453612922       29.2370236235       11.9478958414  W2        9670            0.0000000000
     29009      9670  TIP3      H1             29.6339112922       29.7719936235       11.5959458414  W2        9670            0.0000000000
     29010      9670  TIP3      H2             31.0363212922       29.2922336235       11.2877858414  W2        9670            0.0000000000
     29011      9671  TIP3      OH2            30.3992812922       27.6944536235        8.9863958414  W2        9671            0.0000000000
     29012      9671  TIP3      H1             31.1002712922       27.7171436235        9.6377958414  W2        9671            0.0000000000
     29013      9671  TIP3      H2             30.7015712922       27.0664236235        8.3303258414  W2        9671            0.0000000000
     29014      9672  TIP3      OH2            33.7511312922       29.4463536235       12.8994858414  W2        9672            0.0000000000
     29015      9672  TIP3      H1             33.0192312922       29.6747236235       13.4725458414  W2        9672            0.0000000000
     29016      9672  TIP3      H2             34.1983512922       28.7326236235       13.3542358414  W2        9672            0.0000000000
     29017      9673  TIP3      OH2            33.6484812922       27.6206136235       21.9671858414  W2        9673            0.0000000000
     29018      9673  TIP3      H1             33.7283912922       28.3840536235       22.5390358414  W2        9673            0.0000000000
     29019      9673  TIP3      H2             33.0472512922       27.8998536235       21.2766958414  W2        9673            0.0000000000
     29020      9674  TIP3      OH2            25.3965012922       30.0769736235       14.7819858414  W2        9674            0.0000000000
     29021      9674  TIP3      H1             25.0660212922       29.7063136235       13.9636858414  W2        9674            0.0000000000
     29022      9674  TIP3      H2             25.9849112922       29.4063736235       15.1288158414  W2        9674            0.0000000000
     29023      9675  TIP3      OH2            26.7632512922       33.5050336235       17.4632058414  W2        9675            0.0000000000
     29024      9675  TIP3      H1             26.6683812922       32.9263436235       16.7066658414  W2        9675            0.0000000000
     29025      9675  TIP3      H2             27.4926112922       33.1336036235       17.9594858414  W2        9675            0.0000000000
     29026      9676  TIP3      OH2            25.7630512922       28.8455336235       18.4154858414  W2        9676            0.0000000000
     29027      9676  TIP3      H1             26.3283012922       28.9669536235       17.6526058414  W2        9676            0.0000000000
     29028      9676  TIP3      H2             26.0819412922       29.4830336235       19.0543358414  W2        9676            0.0000000000
     29029      9677  TIP3      OH2            32.0722712922       34.3487236235       19.1495358414  W2        9677            0.0000000000
     29030      9677  TIP3      H1             31.8319312922       35.0110336235       19.7974558414  W2        9677            0.0000000000
     29031      9677  TIP3      H2             31.8740912922       33.5142436235       19.5744958414  W2        9677            0.0000000000
     29032      9678  TIP3      OH2            26.6431212922       33.2448036235       23.1326758414  W2        9678            0.0000000000
     29033      9678  TIP3      H1             26.3318712922       34.0271236235       23.5879958414  W2        9678            0.0000000000
     29034      9678  TIP3      H2             25.9931412922       33.0917136235       22.4468758414  W2        9678            0.0000000000
     29035      9679  TIP3      OH2            32.6220812922       28.6086436235       10.5846058414  W2        9679            0.0000000000
     29036      9679  TIP3      H1             33.2016312922       28.7586736235       11.3314958414  W2        9679            0.0000000000
     29037      9679  TIP3      H2             33.0360812922       29.0793836235        9.8612458414  W2        9679            0.0000000000
     29038      9680  TIP3      OH2            23.5631112922       29.4429136235       22.3612458414  W2        9680            0.0000000000
     29039      9680  TIP3      H1             23.6334312922       30.0935936235       23.0597458414  W2        9680            0.0000000000
     29040      9680  TIP3      H2             22.6723312922       29.5456636235       22.0263358414  W2        9680            0.0000000000
     29041      9681  TIP3      OH2            30.3485712922       35.3454936235       14.0199158414  W2        9681            0.0000000000
     29042      9681  TIP3      H1             30.8223312922       35.6411236235       14.7973358414  W2        9681            0.0000000000
     29043      9681  TIP3      H2             29.7855012922       36.0836536235       13.7868758414  W2        9681            0.0000000000
     29044      9682  TIP3      OH2            24.8827112922       35.3163036235       23.8960558414  W2        9682            0.0000000000
     29045      9682  TIP3      H1             24.8902412922       35.1802736235       22.9486058414  W2        9682            0.0000000000
     29046      9682  TIP3      H2             23.9667512922       35.1991136235       24.1480558414  W2        9682            0.0000000000
     29047      9683  TIP3      OH2            36.3209212922       20.3586836235       10.3975758414  W2        9683            0.0000000000
     29048      9683  TIP3      H1             35.4209912922       20.4975836235       10.6926358414  W2        9683            0.0000000000
     29049      9683  TIP3      H2             36.5727612922       21.1901436235        9.9957458414  W2        9683            0.0000000000
     29050      9684  TIP3      OH2            24.3867712922       29.1464036235       12.3712658414  W2        9684            0.0000000000
     29051      9684  TIP3      H1             24.0949012922       29.9145736235       11.8803958414  W2        9684            0.0000000000
     29052      9684  TIP3      H2             23.7122912922       28.4870236235       12.2084058414  W2        9684            0.0000000000
     29053      9685  TIP3      OH2            20.4797812922       31.5093236235       21.1862458414  W2        9685            0.0000000000
     29054      9685  TIP3      H1             19.9786212922       31.4812636235       20.3712158414  W2        9685            0.0000000000
     29055      9685  TIP3      H2             20.4851512922       30.6036436235       21.4959758414  W2        9685            0.0000000000
     29056      9686  TIP3      OH2            20.2300512922       34.2897036235       18.0702658414  W2        9686            0.0000000000
     29057      9686  TIP3      H1             21.1761112922       34.1454036235       18.0512158414  W2        9686            0.0000000000
     29058      9686  TIP3      H2             20.1176812922       35.0739836235       18.6073858414  W2        9686            0.0000000000
     29059      9687  TIP3      OH2            29.4063012922       34.5295936235       22.6287758414  W2        9687            0.0000000000
     29060      9687  TIP3      H1             29.4937612922       35.3560536235       23.1036858414  W2        9687            0.0000000000
     29061      9687  TIP3      H2             28.5428112922       34.1999736235       22.8777058414  W2        9687            0.0000000000
     29062      9688  TIP3      OH2            35.5798812922       26.4489236235       24.2328558414  W2        9688            0.0000000000
     29063      9688  TIP3      H1             35.1725612922       26.9294836235       23.5121858414  W2        9688            0.0000000000
     29064      9688  TIP3      H2             35.6204512922       25.5435236235       23.9249358414  W2        9688            0.0000000000
     29065      9689  TIP3      OH2            22.7288312922       32.8328636235       22.2295258414  W2        9689            0.0000000000
     29066      9689  TIP3      H1             22.9449612922       32.4714236235       23.0891058414  W2        9689            0.0000000000
     29067      9689  TIP3      H2             21.8733012922       32.4582436235       22.0198758414  W2        9689            0.0000000000
     29068      9690  TIP3      OH2            25.3476312922       21.3029136235       18.2249458414  W2        9690            0.0000000000
     29069      9690  TIP3      H1             24.4860012922       21.2157336235       17.8172358414  W2        9690            0.0000000000
     29070      9690  TIP3      H2             25.3252012922       22.1589236235       18.6527058414  W2        9690            0.0000000000
     29071      9691  TIP3      OH2            30.0104112922       21.0249536235       21.5996458414  W2        9691            0.0000000000
     29072      9691  TIP3      H1             30.4307212922       20.6096636235       22.3527058414  W2        9691            0.0000000000
     29073      9691  TIP3      H2             29.0773712922       20.8462836235       21.7168458414  W2        9691            0.0000000000
     29074      9692  TIP3      OH2            33.3369012922       24.7804736235       22.4530958414  W2        9692            0.0000000000
     29075      9692  TIP3      H1             32.8228512922       24.6546936235       23.2506958414  W2        9692            0.0000000000
     29076      9692  TIP3      H2             33.1813712922       25.6927836235       22.2087158414  W2        9692            0.0000000000
     29077      9693  TIP3      OH2            34.0993912922       29.6414736235        8.2143958414  W2        9693            0.0000000000
     29078      9693  TIP3      H1             34.1414712922       29.4188636235        7.2843958414  W2        9693            0.0000000000
     29079      9693  TIP3      H2             34.9486012922       30.0401836235        8.4043858414  W2        9693            0.0000000000
     29080      9694  TIP3      OH2            29.6721412922       23.5172936235        8.8847258414  W2        9694            0.0000000000
     29081      9694  TIP3      H1             29.4186212922       23.5364536235        9.8075358414  W2        9694            0.0000000000
     29082      9694  TIP3      H2             29.4153512922       22.6458336235        8.5833458414  W2        9694            0.0000000000
     29083      9695  TIP3      OH2            25.4386412922       26.2683636235       19.3199658414  W2        9695            0.0000000000
     29084      9695  TIP3      H1             24.7968512922       26.2280936235       20.0289758414  W2        9695            0.0000000000
     29085      9695  TIP3      H2             25.4758412922       27.1948336235       19.0822658414  W2        9695            0.0000000000
     29086      9696  TIP3      OH2            25.4355512922       26.4893736235       14.2319658414  W2        9696            0.0000000000
     29087      9696  TIP3      H1             24.5428412922       26.1489836235       14.1733458414  W2        9696            0.0000000000
     29088      9696  TIP3      H2             25.8862112922       26.1124636235       13.4762858414  W2        9696            0.0000000000
     29089      9697  TIP3      OH2            30.9711012922       26.9054036235       13.0490458414  W2        9697            0.0000000000
     29090      9697  TIP3      H1             30.5621312922       27.7202636235       12.7575258414  W2        9697            0.0000000000
     29091      9697  TIP3      H2             31.6917212922       26.7654136235       12.4347558414  W2        9697            0.0000000000
     29092      9698  TIP3      OH2            30.0732612922       27.0810436235       24.5371158414  W2        9698            0.0000000000
     29093      9698  TIP3      H1             29.5106412922       26.3762036235       24.8578958414  W2        9698            0.0000000000
     29094      9698  TIP3      H2             30.8996012922       26.9602336235       25.0048758414  W2        9698            0.0000000000
     29095      9699  TIP3      OH2            31.9758712922       26.3514436235       15.8630158414  W2        9699            0.0000000000
     29096      9699  TIP3      H1             31.7803212922       26.9571236235       15.1480758414  W2        9699            0.0000000000
     29097      9699  TIP3      H2             32.1571312922       25.5179636235       15.4286458414  W2        9699            0.0000000000
     29098      9700  TIP3      OH2            23.1886912922       26.5887136235       21.1871658414  W2        9700            0.0000000000
     29099      9700  TIP3      H1             23.1506312922       26.9888736235       22.0558758414  W2        9700            0.0000000000
     29100      9700  TIP3      H2             22.6978012922       25.7719536235       21.2774558414  W2        9700            0.0000000000
     29101      9701  TIP3      OH2            26.5544312922       23.9629436235        7.9857658414  W2        9701            0.0000000000
     29102      9701  TIP3      H1             26.1235012922       23.5179536235        8.7155058414  W2        9701            0.0000000000
     29103      9701  TIP3      H2             25.8363012922       24.3345736235        7.4735158414  W2        9701            0.0000000000
     29104      9702  TIP3      OH2            19.7967712922       23.7048936235       15.0376358414  W2        9702            0.0000000000
     29105      9702  TIP3      H1             20.4275412922       23.6761036235       15.7570258414  W2        9702            0.0000000000
     29106      9702  TIP3      H2             20.2462012922       23.2797636235       14.3072258414  W2        9702            0.0000000000
     29107      9703  TIP3      OH2            21.0709812922       24.4510936235       10.4616758414  W2        9703            0.0000000000
     29108      9703  TIP3      H1             21.5451512922       25.0420836235        9.8767658414  W2        9703            0.0000000000
     29109      9703  TIP3      H2             20.3536212922       24.9813836235       10.8086858414  W2        9703            0.0000000000
     29110      9704  TIP3      OH2            31.2397912922       27.9895736235       20.5342558414  W2        9704            0.0000000000
     29111      9704  TIP3      H1             31.5632712922       27.3585436235       19.8913058414  W2        9704            0.0000000000
     29112      9704  TIP3      H2             30.7997212922       27.4547936235       21.1949958414  W2        9704            0.0000000000
     29113      9705  TIP3      OH2            28.0170812922       23.9171236235       15.3183758414  W2        9705            0.0000000000
     29114      9705  TIP3      H1             27.1061912922       23.9738036235       15.6069758414  W2        9705            0.0000000000
     29115      9705  TIP3      H2             28.5223712922       23.8566736235       16.1290958414  W2        9705            0.0000000000
     29116      9706  TIP3      OH2            22.8454212922       25.5457536235       14.1451358414  W2        9706            0.0000000000
     29117      9706  TIP3      H1             21.9562212922       25.6453036235       13.8050958414  W2        9706            0.0000000000
     29118      9706  TIP3      H2             23.1419112922       24.7040536235       13.7989258414  W2        9706            0.0000000000
     29119      9707  TIP3      OH2            26.4986012922       25.5460136235       11.8015958414  W2        9707            0.0000000000
     29120      9707  TIP3      H1             27.4301512922       25.6750136235       11.9799058414  W2        9707            0.0000000000
     29121      9707  TIP3      H2             26.2836312922       26.2154436235       11.1520658414  W2        9707            0.0000000000
     29122      9708  TIP3      OH2            32.4222712922       23.1517536235       18.5825558414  W2        9708            0.0000000000
     29123      9708  TIP3      H1             31.7454312922       23.2830636235       19.2465258414  W2        9708            0.0000000000
     29124      9708  TIP3      H2             31.9367612922       22.9967036235       17.7723258414  W2        9708            0.0000000000
     29125      9709  TIP3      OH2            25.1726212922       26.7402336235        9.3682058414  W2        9709            0.0000000000
     29126      9709  TIP3      H1             24.6301312922       26.3606136235        8.6769658414  W2        9709            0.0000000000
     29127      9709  TIP3      H2             26.0061112922       26.9347036235        8.9396158414  W2        9709            0.0000000000
     29128      9710  TIP3      OH2            23.3077612922       31.2974236235       24.4673658414  W2        9710            0.0000000000
     29129      9710  TIP3      H1             24.0400012922       31.5520136235       25.0288158414  W2        9710            0.0000000000
     29130      9710  TIP3      H2             22.5276312922       31.5019636235       24.9829058414  W2        9710            0.0000000000
     29131      9711  TIP3      OH2            29.3370512922       26.7044236235       17.2053358414  W2        9711            0.0000000000
     29132      9711  TIP3      H1             29.9013912922       26.1580836235       16.6582958414  W2        9711            0.0000000000
     29133      9711  TIP3      H2             29.1893912922       26.1826136235       17.9940958414  W2        9711            0.0000000000
     29134      9712  TIP3      OH2            24.3390212922       22.8410336235       13.6238158414  W2        9712            0.0000000000
     29135      9712  TIP3      H1             24.0219712922       21.9385636235       13.5883558414  W2        9712            0.0000000000
     29136      9712  TIP3      H2             25.1204312922       22.8427736235       13.0709758414  W2        9712            0.0000000000
     29137      9713  TIP3      OH2            27.9636412922       25.0930336235       19.6193758414  W2        9713            0.0000000000
     29138      9713  TIP3      H1             27.1281712922       25.5469836235       19.7296158414  W2        9713            0.0000000000
     29139      9713  TIP3      H2             28.4877012922       25.3688836235       20.3713658414  W2        9713            0.0000000000
     29140      9714  TIP3      OH2            28.5079012922       31.3058036235       11.3040158414  W2        9714            0.0000000000
     29141      9714  TIP3      H1             27.7630012922       30.7983336235       10.9818058414  W2        9714            0.0000000000
     29142      9714  TIP3      H2             28.3736212922       31.3546036235       12.2504958414  W2        9714            0.0000000000
     29143      9715  TIP3      OH2            35.6577912922       30.4386236235       20.0907758414  W2        9715            0.0000000000
     29144      9715  TIP3      H1             36.2996712922       30.8952536235       19.5469958414  W2        9715            0.0000000000
     29145      9715  TIP3      H2             34.8274812922       30.5518636235       19.6281858414  W2        9715            0.0000000000
     29146      9716  TIP3      OH2            32.4055812922       24.1197936235        9.5032758414  W2        9716            0.0000000000
     29147      9716  TIP3      H1             31.4670012922       24.2313536235        9.3521558414  W2        9716            0.0000000000
     29148      9716  TIP3      H2             32.7027912922       24.9764836235        9.8098458414  W2        9716            0.0000000000
     29149      9717  TIP3      OH2            30.0271112922       31.4901336235       22.5409258414  W2        9717            0.0000000000
     29150      9717  TIP3      H1             29.6817212922       31.1083736235       23.3478858414  W2        9717            0.0000000000
     29151      9717  TIP3      H2             29.8271212922       32.4234936235       22.6122158414  W2        9717            0.0000000000
     29152      9718  TIP3      OH2            33.1239312922       25.9870636235       11.1640158414  W2        9718            0.0000000000
     29153      9718  TIP3      H1             34.0158312922       25.8495636235       11.4831358414  W2        9718            0.0000000000
     29154      9718  TIP3      H2             33.1802912922       26.7776736235       10.6273658414  W2        9718            0.0000000000
     29155      9719  TIP3      OH2            23.6327312922       30.6008036235       17.0738058414  W2        9719            0.0000000000
     29156      9719  TIP3      H1             24.3774512922       30.5983736235       16.4724558414  W2        9719            0.0000000000
     29157      9719  TIP3      H2             23.7103912922       29.7771836235       17.5553158414  W2        9719            0.0000000000
     29158      9720  TIP3      OH2            30.6333112922       32.7642336235       10.3294758414  W2        9720            0.0000000000
     29159      9720  TIP3      H1             30.3381512922       33.5910236235       10.7109558414  W2        9720            0.0000000000
     29160      9720  TIP3      H2             29.9303112922       32.1449236235       10.5256158414  W2        9720            0.0000000000
     29161      9721  TIP3      OH2            20.6407012922       29.0614936235       22.3886558414  W2        9721            0.0000000000
     29162      9721  TIP3      H1             20.8635612922       28.6434536235       23.2204058414  W2        9721            0.0000000000
     29163      9721  TIP3      H2             20.0387112922       28.4489936235       21.9659358414  W2        9721            0.0000000000
     29164      9722  TIP3      OH2            27.6571912922       28.5784836235       24.6016258414  W2        9722            0.0000000000
     29165      9722  TIP3      H1             27.3612712922       28.4127836235       23.7065358414  W2        9722            0.0000000000
     29166      9722  TIP3      H2             28.5887112922       28.3585136235       24.5910158414  W2        9722            0.0000000000
     29167      9723  TIP3      OH2            32.2774712922       33.9516836235       22.4914258414  W2        9723            0.0000000000
     29168      9723  TIP3      H1             31.3769012922       34.1349436235       22.2238158414  W2        9723            0.0000000000
     29169      9723  TIP3      H2             32.3115812922       34.2106136235       23.4123058414  W2        9723            0.0000000000
     29170      9724  TIP3      OH2            36.3039712922       34.9825136235       11.3238958414  W2        9724            0.0000000000
     29171      9724  TIP3      H1             35.9310812922       34.1568936235       11.6329558414  W2        9724            0.0000000000
     29172      9724  TIP3      H2             36.5813212922       34.7994536235       10.4262358414  W2        9724            0.0000000000
     29173      9725  TIP3      OH2            33.4643612922       29.7904636235       18.3450858414  W2        9725            0.0000000000
     29174      9725  TIP3      H1             32.5360512922       29.5586536235       18.3180158414  W2        9725            0.0000000000
     29175      9725  TIP3      H2             33.9154712922       29.0134436235       18.0149658414  W2        9725            0.0000000000
     29176      9726  TIP3      OH2            26.0076712922       34.1186236235       14.4779558414  W2        9726            0.0000000000
     29177      9726  TIP3      H1             26.5348912922       34.8920636235       14.2778358414  W2        9726            0.0000000000
     29178      9726  TIP3      H2             25.1275212922       34.3435436235       14.1763558414  W2        9726            0.0000000000
     29179      9727  TIP3      OH2            21.7624412922       28.9810336235        9.0651958414  W2        9727            0.0000000000
     29180      9727  TIP3      H1             22.3784312922       29.6077536235        9.4446758414  W2        9727            0.0000000000
     29181      9727  TIP3      H2             20.9007012922       29.2970136235        9.3368458414  W2        9727            0.0000000000
     29182      9728  TIP3      OH2            27.4349012922       31.7816136235       14.0543858414  W2        9728            0.0000000000
     29183      9728  TIP3      H1             27.1939012922       32.7070536235       14.0959158414  W2        9728            0.0000000000
     29184      9728  TIP3      H2             26.6942612922       31.3227436235       14.4507758414  W2        9728            0.0000000000
     29185      9729  TIP3      OH2            27.9495612922       35.9309736235       20.3694958414  W2        9729            0.0000000000
     29186      9729  TIP3      H1             28.3120312922       36.7855336235       20.1359358414  W2        9729            0.0000000000
     29187      9729  TIP3      H2             28.4810812922       35.6391336235       21.1101258414  W2        9729            0.0000000000
     29188      9730  TIP3      OH2            26.1179812922       36.8033736235       13.5996058414  W2        9730            0.0000000000
     29189      9730  TIP3      H1             25.1680312922       36.9091136235       13.6509358414  W2        9730            0.0000000000
     29190      9730  TIP3      H2             26.4697912922       37.6241136235       13.9443558414  W2        9730            0.0000000000
     29191      9731  TIP3      OH2            31.4936412922       32.0300436235       20.0700558414  W2        9731            0.0000000000
     29192      9731  TIP3      H1             31.0677712922       31.8022136235       20.8964558414  W2        9731            0.0000000000
     29193      9731  TIP3      H2             32.0742212922       31.2912236235       19.8875858414  W2        9731            0.0000000000
     29194      9732  TIP3      OH2            33.6965312922       32.9590936235        9.1439558414  W2        9732            0.0000000000
     29195      9732  TIP3      H1             34.0498412922       32.5790736235        9.9483058414  W2        9732            0.0000000000
     29196      9732  TIP3      H2             32.7478812922       32.8655736235        9.2308858414  W2        9732            0.0000000000
     29197      9733  TIP3      OH2            34.1520612922       36.5819936235       22.5395358414  W2        9733            0.0000000000
     29198      9733  TIP3      H1             33.5503812922       36.0262836235       22.0441658414  W2        9733            0.0000000000
     29199      9733  TIP3      H2             34.4334312922       37.2489736235       21.9132758414  W2        9733            0.0000000000
     29200      9734  TIP3      OH2            22.2746512922       23.8147636235       21.9467958414  W2        9734            0.0000000000
     29201      9734  TIP3      H1             21.3818812922       24.1533036235       21.8791958414  W2        9734            0.0000000000
     29202      9734  TIP3      H2             22.1759312922       22.9593736235       22.3648758414  W2        9734            0.0000000000
     29203      9735  TIP3      OH2            34.5624612922       31.6312936235       11.3707458414  W2        9735            0.0000000000
     29204      9735  TIP3      H1             34.2852212922       30.9032236235       11.9268558414  W2        9735            0.0000000000
     29205      9735  TIP3      H2             35.4897612922       31.7504936235       11.5760058414  W2        9735            0.0000000000
     29206      9736  TIP3      OH2            21.9258512922       35.6192036235       20.3817358414  W2        9736            0.0000000000
     29207      9736  TIP3      H1             22.1428812922       34.6874436235       20.3507058414  W2        9736            0.0000000000
     29208      9736  TIP3      H2             22.1722012922       35.8937036235       21.2650158414  W2        9736            0.0000000000
     29209      9737  TIP3      OH2            27.7873112922       34.0707036235        7.5909558414  W2        9737            0.0000000000
     29210      9737  TIP3      H1             28.0262912922       33.3225136235        7.0438458414  W2        9737            0.0000000000
     29211      9737  TIP3      H2             27.5184412922       33.6828736235        8.4237358414  W2        9737            0.0000000000
     29212      9738  TIP3      OH2            26.7243712922       33.6410836235       10.0472158414  W2        9738            0.0000000000
     29213      9738  TIP3      H1             26.8711712922       33.1210636235       10.8373058414  W2        9738            0.0000000000
     29214      9738  TIP3      H2             26.7215412922       34.5478436235       10.3538058414  W2        9738            0.0000000000
     29215      9739  TIP3      OH2            23.1774812922       30.8934136235       10.5577558414  W2        9739            0.0000000000
     29216      9739  TIP3      H1             22.4914112922       31.2456636235       11.1247258414  W2        9739            0.0000000000
     29217      9739  TIP3      H2             23.7002712922       31.6563736235       10.3111858414  W2        9739            0.0000000000
     29218      9740  TIP3      OH2            31.0089912922       23.5557936235       20.8366558414  W2        9740            0.0000000000
     29219      9740  TIP3      H1             31.7077812922       23.6296636235       21.4866258414  W2        9740            0.0000000000
     29220      9740  TIP3      H2             30.6281312922       22.6912936235       20.9909458414  W2        9740            0.0000000000
     29221      9741  TIP3      OH2            31.7934812922       23.2079636235       11.9338858414  W2        9741            0.0000000000
     29222      9741  TIP3      H1             32.0133112922       23.6795036235       11.1304258414  W2        9741            0.0000000000
     29223      9741  TIP3      H2             32.3518812922       23.6022236235       12.6039458414  W2        9741            0.0000000000
     29224      9742  TIP3      OH2            29.4620912922       35.3384436235       10.7966358414  W2        9742            0.0000000000
     29225      9742  TIP3      H1             28.6457012922       35.8354136235       10.8490658414  W2        9742            0.0000000000
     29226      9742  TIP3      H2             29.9917212922       35.8137936235       10.1565158414  W2        9742            0.0000000000
     29227      9743  TIP3      OH2            28.9934712922       24.9358436235       12.7687258414  W2        9743            0.0000000000
     29228      9743  TIP3      H1             29.8057312922       25.4401636235       12.8148958414  W2        9743            0.0000000000
     29229      9743  TIP3      H2             28.7487712922       24.7908136235       13.6826858414  W2        9743            0.0000000000
     29230      9744  TIP3      OH2            29.5291112922       25.9221136235       21.9533858414  W2        9744            0.0000000000
     29231      9744  TIP3      H1             29.6481412922       26.4956536235       22.7104258414  W2        9744            0.0000000000
     29232      9744  TIP3      H2             30.1845712922       25.2340536235       22.0681658414  W2        9744            0.0000000000
     29233      9745  TIP3      OH2            29.8771412922       22.0171436235       13.7068358414  W2        9745            0.0000000000
     29234      9745  TIP3      H1             29.5304912922       22.6342036235       14.3512658414  W2        9745            0.0000000000
     29235      9745  TIP3      H2             30.5358312922       22.5177136235       13.2253858414  W2        9745            0.0000000000
     29236      9746  TIP3      OH2            26.8004012922       36.3821636235       10.7783258414  W2        9746            0.0000000000
     29237      9746  TIP3      H1             26.9612712922       37.1819136235       10.2775858414  W2        9746            0.0000000000
     29238      9746  TIP3      H2             26.6031812922       36.6887636235       11.6633858414  W2        9746            0.0000000000
     29239      9747  TIP3      OH2            25.5348412922       23.0800836235       10.3940858414  W2        9747            0.0000000000
     29240      9747  TIP3      H1             25.4513212922       23.9683936235       10.7407258414  W2        9747            0.0000000000
     29241      9747  TIP3      H2             26.4248712922       22.8147536235       10.6257658414  W2        9747            0.0000000000
     29242      9748  TIP3      OH2            35.7336912922       23.8291436235       22.7883558414  W2        9748            0.0000000000
     29243      9748  TIP3      H1             34.8172712922       24.0913136235       22.7007258414  W2        9748            0.0000000000
     29244      9748  TIP3      H2             36.0691912922       23.8260436235       21.8918858414  W2        9748            0.0000000000
     29245      9749  TIP3      OH2            34.3357912922       27.5792436235       16.8840858414  W2        9749            0.0000000000
     29246      9749  TIP3      H1             33.5382312922       27.1642636235       16.5555858414  W2        9749            0.0000000000
     29247      9749  TIP3      H2             34.7809012922       26.8886136235       17.3751358414  W2        9749            0.0000000000
     29248      9750  TIP3      OH2            23.7933712922       33.5073036235        9.4545358414  W2        9750            0.0000000000
     29249      9750  TIP3      H1             24.3855212922       34.2067836235        9.7307758414  W2        9750            0.0000000000
     29250      9750  TIP3      H2             24.2526712922       33.0742536235        8.7349958414  W2        9750            0.0000000000
     29251      9751  TIP3      OH2            22.1092912922       26.1716036235        8.5704758414  W2        9751            0.0000000000
     29252      9751  TIP3      H1             22.0645512922       27.1109136235        8.7491758414  W2        9751            0.0000000000
     29253      9751  TIP3      H2             21.2216112922       25.9360936235        8.3006858414  W2        9751            0.0000000000
     29254      9752  TIP3      OH2            22.9174912922       20.9532636235       17.2435758414  W2        9752            0.0000000000
     29255      9752  TIP3      H1             22.6884712922       21.0125136235       16.3160758414  W2        9752            0.0000000000
     29256      9752  TIP3      H2             22.4748312922       20.1618136235       17.5499858414  W2        9752            0.0000000000
     29257      9753  TIP3      OH2            21.8478212922       34.8939736235       13.4041558414  W2        9753            0.0000000000
     29258      9753  TIP3      H1             21.0156812922       35.3662436235       13.4312958414  W2        9753            0.0000000000
     29259      9753  TIP3      H2             22.3936512922       35.4037336235       12.8054658414  W2        9753            0.0000000000
     29260      9754  TIP3      OH2            25.7335312922       36.4257836235       26.3543758414  W2        9754            0.0000000000
     29261      9754  TIP3      H1             26.5012512922       35.9668636235       26.6952958414  W2        9754            0.0000000000
     29262      9754  TIP3      H2             25.7121512922       36.1997636235       25.4244958414  W2        9754            0.0000000000
     29263      9755  TIP3      OH2            29.8254912922       35.9338436235        7.7295558414  W2        9755            0.0000000000
     29264      9755  TIP3      H1             29.1815912922       35.3027036235        8.0509258414  W2        9755            0.0000000000
     29265      9755  TIP3      H2             30.5873212922       35.4026436235        7.4979058414  W2        9755            0.0000000000
     29266      9756  TIP3      OH2            32.3104012922       34.8058936235       25.0835258414  W2        9756            0.0000000000
     29267      9756  TIP3      H1             31.9593512922       33.9491936235       25.3265658414  W2        9756            0.0000000000
     29268      9756  TIP3      H2             33.0367212922       34.9485636235       25.6904258414  W2        9756            0.0000000000
     29269      9757  TIP3      OH2            34.4297812922       35.7508336235        7.9633558414  W2        9757            0.0000000000
     29270      9757  TIP3      H1             34.7128212922       34.9563536235        8.4160458414  W2        9757            0.0000000000
     29271      9757  TIP3      H2             35.1695712922       35.9839336235        7.4024658414  W2        9757            0.0000000000
     29272      9758  TIP3      OH2            21.0431412922       31.3167536235       25.6883858414  W2        9758            0.0000000000
     29273      9758  TIP3      H1             21.1871912922       30.4148236235       25.4020558414  W2        9758            0.0000000000
     29274      9758  TIP3      H2             20.2708812922       31.6029636235       25.2006158414  W2        9758            0.0000000000
     29275      9759  TIP3      OH2            25.3845112922       31.6603236235        7.8208458414  W2        9759            0.0000000000
     29276      9759  TIP3      H1             25.4489212922       30.8662836235        8.3514858414  W2        9759            0.0000000000
     29277      9759  TIP3      H2             26.0374312922       31.5416036235        7.1310458414  W2        9759            0.0000000000
     29278      9760  TIP3      OH2            27.6987512922       31.2865636235       25.1210258414  W2        9760            0.0000000000
     29279      9760  TIP3      H1             27.3701312922       31.5573736235       24.2637658414  W2        9760            0.0000000000
     29280      9760  TIP3      H2             27.8505712922       30.3455436235       25.0335258414  W2        9760            0.0000000000
     29281      9761  TIP3      OH2            30.7368512922       32.7074936235        7.5566458414  W2        9761            0.0000000000
     29282      9761  TIP3      H1             30.4682612922       32.8877036235        8.4575358414  W2        9761            0.0000000000
     29283      9761  TIP3      H2             30.5304112922       31.7821136235        7.4252258414  W2        9761            0.0000000000
     29284      9762  TIP3      OH2            33.4332712922       31.2022936235       22.5042558414  W2        9762            0.0000000000
     29285      9762  TIP3      H1             34.1787512922       31.7906636235       22.3846558414  W2        9762            0.0000000000
     29286      9762  TIP3      H2             32.6759512922       31.7842636235       22.5675658414  W2        9762            0.0000000000
     29287      9763  TIP3      OH2            21.8757912922       28.5170836235       25.1083158414  W2        9763            0.0000000000
     29288      9763  TIP3      H1             22.2839112922       27.6597436235       24.9873758414  W2        9763            0.0000000000
     29289      9763  TIP3      H2             21.6155512922       28.5312136235       26.0293458414  W2        9763            0.0000000000
     29290      9764  TIP3      OH2            26.5338912922       29.6329436235       10.1266458414  W2        9764            0.0000000000
     29291      9764  TIP3      H1             26.0740912922       29.1487736235       10.8124958414  W2        9764            0.0000000000
     29292      9764  TIP3      H2             26.7887612922       28.9644836235        9.4906958414  W2        9764            0.0000000000
     29293      9765  TIP3      OH2            25.8228212922       27.5256536235       22.4826058414  W2        9765            0.0000000000
     29294      9765  TIP3      H1             25.2044312922       28.2003136235       22.7630758414  W2        9765            0.0000000000
     29295      9765  TIP3      H2             26.1669412922       27.8470436235       21.6492258414  W2        9765            0.0000000000
     29296      9766  TIP3      OH2            27.6049312922       27.8761236235        8.3889658414  W2        9766            0.0000000000
     29297      9766  TIP3      H1             27.4244312922       27.7212436235        7.4617958414  W2        9766            0.0000000000
     29298      9766  TIP3      H2             28.5549812922       27.9839936235        8.4337558414  W2        9766            0.0000000000
     29299      9767  TIP3      OH2            30.8426412922       29.9971836235       25.7600858414  W2        9767            0.0000000000
     29300      9767  TIP3      H1             31.7957612922       30.0810936235       25.7326858414  W2        9767            0.0000000000
     29301      9767  TIP3      H2             30.6821012922       29.2853636235       26.3795758414  W2        9767            0.0000000000
     29302      9768  TIP3      OH2            26.1621912922       24.8807336235       23.5649158414  W2        9768            0.0000000000
     29303      9768  TIP3      H1             26.3122812922       24.1518636235       22.9628858414  W2        9768            0.0000000000
     29304      9768  TIP3      H2             26.1644312922       25.6579036235       23.0061358414  W2        9768            0.0000000000
     29305      9769  TIP3      OH2            26.5747612922       23.2503136235       21.0576558414  W2        9769            0.0000000000
     29306      9769  TIP3      H1             27.1105112922       23.7019836235       20.4055858414  W2        9769            0.0000000000
     29307      9769  TIP3      H2             25.7227212922       23.1422936235       20.6350658414  W2        9769            0.0000000000
     29308      9770  TIP3      OH2            28.1566012922       28.6899336235       21.2971758414  W2        9770            0.0000000000
     29309      9770  TIP3      H1             28.9070812922       28.5336836235       20.7239558414  W2        9770            0.0000000000
     29310      9770  TIP3      H2             27.8174312922       29.5415936235       21.0217258414  W2        9770            0.0000000000
     29311      9771  TIP3      OH2            32.5722212922       26.5051136235       26.3257058414  W2        9771            0.0000000000
     29312      9771  TIP3      H1             32.7643512922       25.5740536235       26.2141558414  W2        9771            0.0000000000
     29313      9771  TIP3      H2             33.4298512922       26.9300636235       26.3152458414  W2        9771            0.0000000000
     29314      9772  TIP3      OH2            33.8889412922       29.2936336235       24.4029758414  W2        9772            0.0000000000
     29315      9772  TIP3      H1             33.6074412922       30.0030936235       23.8253558414  W2        9772            0.0000000000
     29316      9772  TIP3      H2             34.8313712922       29.2209336235       24.2520958414  W2        9772            0.0000000000
     29317      9773  TIP3      OH2            24.6408212922       26.0790836235       25.4764758414  W2        9773            0.0000000000
     29318      9773  TIP3      H1             23.8737212922       25.5465636235       25.2662358414  W2        9773            0.0000000000
     29319      9773  TIP3      H2             25.3197212922       25.7691236235       24.8771058414  W2        9773            0.0000000000
     29320      9774  TIP3      OH2            27.3803112922       20.7068836235       21.4890158414  W2        9774            0.0000000000
     29321      9774  TIP3      H1             27.2822712922       21.6532036235       21.3836358414  W2        9774            0.0000000000
     29322      9774  TIP3      H2             26.6379312922       20.3342636235       21.0133658414  W2        9774            0.0000000000
     29323      9775  TIP3      OH2            28.6443612922       25.0284236235       25.0528558414  W2        9775            0.0000000000
     29324      9775  TIP3      H1             28.4089012922       24.8090936235       25.9543458414  W2        9775            0.0000000000
     29325      9775  TIP3      H2             27.8610512922       24.8215436235       24.5431058414  W2        9775            0.0000000000
     29326      9776  TIP3      OH2            31.3600212922       24.1557736235       24.1282058414  W2        9776            0.0000000000
     29327      9776  TIP3      H1             30.4125612922       24.1877436235       24.2605358414  W2        9776            0.0000000000
     29328      9776  TIP3      H2             31.6726912922       23.5304836235       24.7820258414  W2        9776            0.0000000000
     29329      9777  TIP3      OH2            32.9941712922       22.7898836235       26.1333958414  W2        9777            0.0000000000
     29330      9777  TIP3      H1             32.8973512922       21.8376136235       26.1275858414  W2        9777            0.0000000000
     29331      9777  TIP3      H2             32.6724812922       23.0585636235       26.9939458414  W2        9777            0.0000000000
     29332      9778  TIP3      OH2            22.8211012922       23.9994636235       25.1809458414  W2        9778            0.0000000000
     29333      9778  TIP3      H1             23.0328412922       23.2930736235       24.5706958414  W2        9778            0.0000000000
     29334      9778  TIP3      H2             22.7098512922       23.5620636235       26.0250658414  W2        9778            0.0000000000
     29335      9779  TIP3      OH2            27.6021212922       20.0006236235       24.1602958414  W2        9779            0.0000000000
     29336      9779  TIP3      H1             28.3139612922       19.3608436235       24.1462058414  W2        9779            0.0000000000
     29337      9779  TIP3      H2             27.5011612922       20.2674536235       23.2466058414  W2        9779            0.0000000000
     29338      9780  TIP3      OH2            27.9558712922       21.6834636235       26.2139258414  W2        9780            0.0000000000
     29339      9780  TIP3      H1             27.8240912922       21.2078436235       25.3937758414  W2        9780            0.0000000000
     29340      9780  TIP3      H2             27.3566112922       22.4278236235       26.1586358414  W2        9780            0.0000000000
     29341      9781  TIP3      OH2            21.0705912922       33.2028736235        8.8731358414  W2        9781            0.0000000000
     29342      9781  TIP3      H1             21.9845112922       33.2817636235        9.1465258414  W2        9781            0.0000000000
     29343      9781  TIP3      H2             21.0779012922       32.5158336235        8.2066958414  W2        9781            0.0000000000
     29344      9782  TIP3      OH2            20.5895712922       36.6764236235       15.7551458414  W2        9782            0.0000000000
     29345      9782  TIP3      H1             20.2552512922       35.7961536235       15.9271658414  W2        9782            0.0000000000
     29346      9782  TIP3      H2             20.8118112922       37.0219236235       16.6197058414  W2        9782            0.0000000000
     29347      9783  TIP3      OH2            36.1520712922       32.8429836235       26.2955658414  W2        9783            0.0000000000
     29348      9783  TIP3      H1             35.2861812922       32.7379536235       26.6897958414  W2        9783            0.0000000000
     29349      9783  TIP3      H2             36.5286612922       33.6013136235       26.7420358414  W2        9783            0.0000000000
     29350      9784  TIP3      OH2            36.0929512922       34.8155936235       20.8879858414  W2        9784            0.0000000000
     29351      9784  TIP3      H1             35.4454812922       35.1407436235       21.5135058414  W2        9784            0.0000000000
     29352      9784  TIP3      H2             35.5753512922       34.3753636235       20.2138158414  W2        9784            0.0000000000
     29353      9785  TIP3      OH2            36.4648112922       26.2935036235        8.5752258414  W2        9785            0.0000000000
     29354      9785  TIP3      H1             36.5612512922       26.9602036235        7.8951958414  W2        9785            0.0000000000
     29355      9785  TIP3      H2             36.3247712922       25.4781336235        8.0937758414  W2        9785            0.0000000000
     29356      9786  TIP3      OH2            35.6342812922       27.6737436235       14.1962558414  W2        9786            0.0000000000
     29357      9786  TIP3      H1             35.4841612922       26.7286036235       14.1760358414  W2        9786            0.0000000000
     29358      9786  TIP3      H2             35.2807312922       27.9548836235       15.0401658414  W2        9786            0.0000000000
     29359      9787  TIP3      OH2            20.6695212922       29.7519636235       18.2066358414  W2        9787            0.0000000000
     29360      9787  TIP3      H1             20.8538112922       29.6701336235       17.2709258414  W2        9787            0.0000000000
     29361      9787  TIP3      H2             21.5188112922       29.6276636235       18.6302758414  W2        9787            0.0000000000
     29362      9788  TIP3      OH2            36.4905712922       29.6440736235       23.8350858414  W2        9788            0.0000000000
     29363      9788  TIP3      H1             37.0733012922       28.9093036235       24.0268058414  W2        9788            0.0000000000
     29364      9788  TIP3      H2             37.0545012922       30.4161036235       23.8816658414  W2        9788            0.0000000000
     29365      9789  TIP3      OH2            35.7121912922       23.7014836235        7.6927758414  W2        9789            0.0000000000
     29366      9789  TIP3      H1             36.3227712922       23.3301636235        8.3295958414  W2        9789            0.0000000000
     29367      9789  TIP3      H2             34.8753412922       23.2801736235        7.8887758414  W2        9789            0.0000000000
     29368      9790  TIP3      OH2            35.3447612922       25.2563236235       12.6587658414  W2        9790            0.0000000000
     29369      9790  TIP3      H1             35.6244712922       24.3493636235       12.7829358414  W2        9790            0.0000000000
     29370      9790  TIP3      H2             36.1039312922       25.6904736235       12.2696858414  W2        9790            0.0000000000
     29371      9791  TIP3      OH2            35.9565912922       25.8380636235       18.0946558414  W2        9791            0.0000000000
     29372      9791  TIP3      H1             36.8893912922       26.0500536235       18.0602558414  W2        9791            0.0000000000
     29373      9791  TIP3      H2             35.7213412922       25.9392736235       19.0169558414  W2        9791            0.0000000000
     29374      9792  TIP3      OH2            35.9857812922       26.5745936235       20.8705958414  W2        9792            0.0000000000
     29375      9792  TIP3      H1             35.1429112922       26.8426336235       21.2365758414  W2        9792            0.0000000000
     29376      9792  TIP3      H2             36.4282112922       27.3967836235       20.6597058414  W2        9792            0.0000000000
     29377      9793  TIP3      OH2            20.2670012922       25.0224636235       24.3475158414  W2        9793            0.0000000000
     29378      9793  TIP3      H1             21.1864912922       24.9002936235       24.5838258414  W2        9793            0.0000000000
     29379      9793  TIP3      H2             19.8174512922       24.2724336235       24.7368658414  W2        9793            0.0000000000
     29380      9794  TIP3      OH2            35.9582412922       22.5192536235       12.7069658414  W2        9794            0.0000000000
     29381      9794  TIP3      H1             36.1407412922       22.0704036235       13.5324658414  W2        9794            0.0000000000
     29382      9794  TIP3      H2             35.3585312922       21.9346936235       12.2434258414  W2        9794            0.0000000000
     29383      9795  TIP3      OH2            21.4882512922       23.3346236235       17.2388058414  W2        9795            0.0000000000
     29384      9795  TIP3      H1             21.9334112922       22.5428736235       17.5407758414  W2        9795            0.0000000000
     29385      9795  TIP3      H2             21.9545512922       24.0511436235       17.6693658414  W2        9795            0.0000000000
     29386      9796  TIP3      OH2            19.7922812922       26.3339236235       18.3078258414  W2        9796            0.0000000000
     29387      9796  TIP3      H1             20.2842612922       26.1129736235       17.5170258414  W2        9796            0.0000000000
     29388      9796  TIP3      H2             20.1543712922       27.1742636235       18.5887758414  W2        9796            0.0000000000
     29389      9797  TIP3      OH2            20.1059312922       22.5918336235       12.3620658414  W2        9797            0.0000000000
     29390      9797  TIP3      H1             19.1807712922       22.8004936235       12.2326158414  W2        9797            0.0000000000
     29391      9797  TIP3      H2             20.5599212922       23.0759136235       11.6722958414  W2        9797            0.0000000000
     29392      9798  TIP3      OH2            20.0694712922       21.3297336235       20.7063158414  W2        9798            0.0000000000
     29393      9798  TIP3      H1             19.4045212922       21.0837636235       21.3494058414  W2        9798            0.0000000000
     29394      9798  TIP3      H2             19.6266012922       21.9517736235       20.1291158414  W2        9798            0.0000000000
     29395      9799  TIP3      OH2            22.2614012922       34.5051436235       24.8508958414  W2        9799            0.0000000000
     29396      9799  TIP3      H1             21.4406512922       34.6797936235       24.3903658414  W2        9799            0.0000000000
     29397      9799  TIP3      H2             22.0091812922       34.4316136235       25.7713358414  W2        9799            0.0000000000
     29398      9800  TIP3      OH2            25.2156912922       35.4792636235       21.1092958414  W2        9800            0.0000000000
     29399      9800  TIP3      H1             24.7908012922       36.2891136235       20.8267558414  W2        9800            0.0000000000
     29400      9800  TIP3      H2             26.1199712922       35.5646736235       20.8072758414  W2        9800            0.0000000000
     29401      9801  TIP3      OH2            24.1734812922       36.0687736235       16.7219958414  W2        9801            0.0000000000
     29402      9801  TIP3      H1             23.9545512922       35.1525136235       16.8915958414  W2        9801            0.0000000000
     29403      9801  TIP3      H2             24.9977012922       36.2088136235       17.1881358414  W2        9801            0.0000000000
     29404      9802  TIP3      OH2            26.7107312922       36.5387036235       17.5707958414  W2        9802            0.0000000000
     29405      9802  TIP3      H1             26.9233012922       35.6506036235       17.2838858414  W2        9802            0.0000000000
     29406      9802  TIP3      H2             26.7752412922       36.5044736235       18.5251958414  W2        9802            0.0000000000
     29407      9803  TIP3      OH2            30.2191012922       22.2027636235       16.7151258414  W2        9803            0.0000000000
     29408      9803  TIP3      H1             29.5447812922       21.5733236235       16.9707058414  W2        9803            0.0000000000
     29409      9803  TIP3      H2             30.7830212922       21.7186536235       16.1119158414  W2        9803            0.0000000000
     29410      9804  TIP3      OH2            35.3618212922       20.3101636235       16.8278358414  W2        9804            0.0000000000
     29411      9804  TIP3      H1             35.9655812922       20.8577036235       16.3259358414  W2        9804            0.0000000000
     29412      9804  TIP3      H2             34.4920212922       20.6292036235       16.5872458414  W2        9804            0.0000000000
     29413      9805  TIP3      OH2            22.5458512922       20.8367936235       14.5371158414  W2        9805            0.0000000000
     29414      9805  TIP3      H1             21.7688312922       20.6022836235       14.0297058414  W2        9805            0.0000000000
     29415      9805  TIP3      H2             23.0762112922       20.0400036235       14.5459158414  W2        9805            0.0000000000
     29416      9806  TIP3      OH2            21.3821912922       20.6346036235       10.3407258414  W2        9806            0.0000000000
     29417      9806  TIP3      H1             21.8212612922       21.2456536235        9.7490758414  W2        9806            0.0000000000
     29418      9806  TIP3      H2             20.7484312922       21.1730136235       10.8147258414  W2        9806            0.0000000000
     29419      9807  TIP3      OH2            27.1251112922       20.7635036235       14.3504258414  W2        9807            0.0000000000
     29420      9807  TIP3      H1             27.9994512922       21.1519336235       14.3208558414  W2        9807            0.0000000000
     29421      9807  TIP3      H2             26.9891912922       20.5482836235       15.2731458414  W2        9807            0.0000000000
     29422      9808  TIP3      OH2            32.6819512922       20.7934836235       15.9995958414  W2        9808            0.0000000000
     29423      9808  TIP3      H1             32.7581112922       20.8886436235       15.0501958414  W2        9808            0.0000000000
     29424      9808  TIP3      H2             32.4068712922       19.8857736235       16.1285058414  W2        9808            0.0000000000
     29425      9809  TIP3      OH2            34.0352112922       20.8192636235       11.6920958414  W2        9809            0.0000000000
     29426      9809  TIP3      H1             33.3323212922       21.4341836235       11.4822358414  W2        9809            0.0000000000
     29427      9809  TIP3      H2             33.5903512922       19.9819336235       11.8231858414  W2        9809            0.0000000000
     29428      9810  TIP3      OH2            21.2831412922       36.5828236235       11.2382358414  W2        9810            0.0000000000
     29429      9810  TIP3      H1             20.5981312922       36.5447136235       10.5707458414  W2        9810            0.0000000000
     29430      9810  TIP3      H2             21.2868612922       37.4955836235       11.5264458414  W2        9810            0.0000000000
     29431      9811  TIP3      OH2            23.2431012922       22.5507536235        8.7831358414  W2        9811            0.0000000000
     29432      9811  TIP3      H1             23.7344412922       21.9209936235        8.2556858414  W2        9811            0.0000000000
     29433      9811  TIP3      H2             23.8667312922       22.8466936235        9.4462558414  W2        9811            0.0000000000
     29434      9812  TIP3      OH2            28.2691112922       22.8439036235       11.2401858414  W2        9812            0.0000000000
     29435      9812  TIP3      H1             28.4472412922       22.1972236235       11.9230458414  W2        9812            0.0000000000
     29436      9812  TIP3      H2             28.2157312922       23.6776736235       11.7072958414  W2        9812            0.0000000000
     29437      9813  TIP3      OH2            22.5036512922       21.3509836235       24.0547358414  W2        9813            0.0000000000
     29438      9813  TIP3      H1             22.1374712922       20.5852436235       24.4972058414  W2        9813            0.0000000000
     29439      9813  TIP3      H2             23.4165012922       21.3800036235       24.3412458414  W2        9813            0.0000000000
     29440      9814  TIP3      OH2            24.4767312922       20.7014236235       25.5904458414  W2        9814            0.0000000000
     29441      9814  TIP3      H1             25.3750912922       20.4274436235       25.4057858414  W2        9814            0.0000000000
     29442      9814  TIP3      H2             24.0900412922       19.9590236235       26.0547058414  W2        9814            0.0000000000
     29443      9815  TIP3      OH2            32.8979612922       20.0339536235       25.7727258414  W2        9815            0.0000000000
     29444      9815  TIP3      H1             32.9746812922       19.6080236235       26.6264958414  W2        9815            0.0000000000
     29445      9815  TIP3      H2             33.7916212922       20.0474236235       25.4300758414  W2        9815            0.0000000000
     29446      9816  TIP3      OH2            36.0740712922       36.1065836235       24.4651458414  W2        9816            0.0000000000
     29447      9816  TIP3      H1             35.2922612922       35.9203836235       23.9452058414  W2        9816            0.0000000000
     29448      9816  TIP3      H2             36.0020612922       37.0360136235       24.6823958414  W2        9816            0.0000000000
     29449      9817  TIP3      OH2           -26.1687187078      -28.8735463765       27.8423958414  W2        9847            0.0000000000
     29450      9817  TIP3      H1            -25.4677287078      -28.8508563765       28.4937958414  W2        9847            0.0000000000
     29451      9817  TIP3      H2            -25.8664287078      -29.5015763765       27.1863258414  W2        9847            0.0000000000
     29452      9818  TIP3      OH2           -23.9459187078      -27.9593563765       29.4406058414  W2        9856            0.0000000000
     29453      9818  TIP3      H1            -23.3663687078      -27.8093263765       30.1874958414  W2        9856            0.0000000000
     29454      9818  TIP3      H2            -23.5319187078      -27.4886163765       28.7172458414  W2        9856            0.0000000000
     29455      9819  TIP3      OH2           -20.2470787078      -36.2093163765       29.2535758414  W2        9860            0.0000000000
     29456      9819  TIP3      H1            -21.1470087078      -36.0704163765       29.5486358414  W2        9860            0.0000000000
     29457      9819  TIP3      H2            -19.9952387078      -35.3778563765       28.8517458414  W2        9860            0.0000000000
     29458      9820  TIP3      OH2           -19.0579387078      -21.8430763765       27.6299658414  W2        9862            0.0000000000
     29459      9820  TIP3      H1            -18.9845887078      -20.9040563765       27.8004958414  W2        9862            0.0000000000
     29460      9820  TIP3      H2            -18.1524287078      -22.1482163765       27.5736958414  W2        9862            0.0000000000
     29461      9821  TIP3      OH2           -23.6455187078      -19.1120163765       28.2930758414  W2        9869            0.0000000000
     29462      9821  TIP3      H1            -23.2706787078      -19.8564063765       27.8223358414  W2        9869            0.0000000000
     29463      9821  TIP3      H2            -23.6411487078      -19.3819563765       29.2114058414  W2        9869            0.0000000000
     29464      9822  TIP3      OH2           -22.4686087078      -26.9265263765       27.0703958414  W2        9876            0.0000000000
     29465      9822  TIP3      H1            -22.4265287078      -27.1491363765       26.1403958414  W2        9876            0.0000000000
     29466      9822  TIP3      H2            -21.6193987078      -26.5278163765       27.2603858414  W2        9876            0.0000000000
     29467      9823  TIP3      OH2           -26.8958587078      -33.0507063765       27.7407258414  W2        9877            0.0000000000
     29468      9823  TIP3      H1            -27.1493787078      -33.0315463765       28.6635358414  W2        9877            0.0000000000
     29469      9823  TIP3      H2            -27.1526487078      -33.9221663765       27.4393458414  W2        9877            0.0000000000
     29470      9824  TIP3      OH2           -30.0135687078      -32.6050563765       26.8417658414  W2        9884            0.0000000000
     29471      9824  TIP3      H1            -30.4444987078      -33.0500463765       27.5715058414  W2        9884            0.0000000000
     29472      9824  TIP3      H2            -30.7316987078      -32.2334263765       26.3295158414  W2        9884            0.0000000000
     29473      9825  TIP3      OH2           -35.4970187078      -32.1169063765       29.3176758414  W2        9886            0.0000000000
     29474      9825  TIP3      H1            -35.0228487078      -31.5259163765       28.7327658414  W2        9886            0.0000000000
     29475      9825  TIP3      H2            -36.2143787078      -31.5866163765       29.6646858414  W2        9886            0.0000000000
     29476      9826  TIP3      OH2           -31.3953787078      -29.8277663765       28.2242058414  W2        9892            0.0000000000
     29477      9826  TIP3      H1            -31.9378687078      -30.2073863765       27.5329658414  W2        9892            0.0000000000
     29478      9826  TIP3      H2            -30.5618887078      -29.6332963765       27.7956158414  W2        9892            0.0000000000
     29479      9827  TIP3      OH2           -24.1624187078      -32.4482063765       28.3592758414  W2        9900            0.0000000000
     29480      9827  TIP3      H1            -25.1009987078      -32.3366463765       28.2081558414  W2        9900            0.0000000000
     29481      9827  TIP3      H2            -23.8652087078      -31.5915163765       28.6658458414  W2        9900            0.0000000000
     29482      9828  TIP3      OH2           -25.9346887078      -23.8037663765       29.1854758414  W2        9904            0.0000000000
     29483      9828  TIP3      H1            -26.2298487078      -22.9769763765       29.5669558414  W2        9904            0.0000000000
     29484      9828  TIP3      H2            -26.6376887078      -24.4230763765       29.3816158414  W2        9904            0.0000000000
     29485      9829  TIP3      OH2           -18.5591987078      -30.3715263765       29.7146858414  W2        9908            0.0000000000
     29486      9829  TIP3      H1            -19.1135687078      -30.7677263765       29.0424358414  W2        9908            0.0000000000
     29487      9829  TIP3      H2            -18.4588387078      -29.4610063765       29.4370158414  W2        9908            0.0000000000
     29488      9830  TIP3      OH2           -34.8055587078      -27.5869663765       27.9211958414  W2        9913            0.0000000000
     29489      9830  TIP3      H1            -34.1895687078      -26.9602463765       28.3006758414  W2        9913            0.0000000000
     29490      9830  TIP3      H2            -35.6672987078      -27.2709863765       28.1928458414  W2        9913            0.0000000000
     29491      9831  TIP3      OH2           -22.8714687078      -23.6089063765       27.9999558414  W2        9918            0.0000000000
     29492      9831  TIP3      H1            -22.5181587078      -23.9889263765       28.8043058414  W2        9918            0.0000000000
     29493      9831  TIP3      H2            -23.8201187078      -23.7024263765       28.0868858414  W2        9918            0.0000000000
     29494      9832  TIP3      OH2           -18.3680287078      -19.1296563765       28.2009758414  W2        9920            0.0000000000
     29495      9832  TIP3      H1            -17.6242387078      -18.5436063765       28.0611358414  W2        9920            0.0000000000
     29496      9832  TIP3      H2            -19.0622187078      -18.5610763765       28.5342158414  W2        9920            0.0000000000
     29497      9833  TIP3      OH2           -28.7806887078      -22.4972963765       26.4469558414  W2        9924            0.0000000000
     29498      9833  TIP3      H1            -28.5417087078      -23.2454863765       25.8998458414  W2        9924            0.0000000000
     29499      9833  TIP3      H2            -29.0495587078      -22.8851263765       27.2797358414  W2        9924            0.0000000000
     29500      9834  TIP3      OH2           -29.8436287078      -22.9269163765       28.9032158414  W2        9925            0.0000000000
     29501      9834  TIP3      H1            -29.6968287078      -23.4469363765       29.6933058414  W2        9925            0.0000000000
     29502      9834  TIP3      H2            -29.8464587078      -22.0201563765       29.2098058414  W2        9925            0.0000000000
     29503      9835  TIP3      OH2           -33.3905187078      -25.6745863765       29.4137558414  W2        9926            0.0000000000
     29504      9835  TIP3      H1            -34.0765887078      -25.3223363765       29.9807258414  W2        9926            0.0000000000
     29505      9835  TIP3      H2            -32.8677287078      -24.9116263765       29.1671858414  W2        9926            0.0000000000
     29506      9836  TIP3      OH2           -27.1059087078      -21.2295563765       29.6526358414  W2        9929            0.0000000000
     29507      9836  TIP3      H1            -27.9222987078      -20.7325863765       29.7050658414  W2        9929            0.0000000000
     29508      9836  TIP3      H2            -26.5762787078      -20.7542063765       29.0125158414  W2        9929            0.0000000000
     29509      9837  TIP3      OH2           -29.7675987078      -20.1858363765       29.6343258414  W2        9933            0.0000000000
     29510      9837  TIP3      H1            -29.6067287078      -19.3860863765       29.1335858414  W2        9933            0.0000000000
     29511      9837  TIP3      H2            -29.9648187078      -19.8792363765       30.5193858414  W2        9933            0.0000000000
     29512      9838  TIP3      OH2           -31.0331587078      -33.4879163765       29.2500858414  W2        9934            0.0000000000
     29513      9838  TIP3      H1            -31.1166787078      -32.5996063765       29.5967258414  W2        9934            0.0000000000
     29514      9838  TIP3      H2            -30.1431287078      -33.7532463765       29.4817658414  W2        9934            0.0000000000
     29515      9839  TIP3      OH2           -32.7746287078      -23.0606963765       28.3105358414  W2        9937            0.0000000000
     29516      9839  TIP3      H1            -32.1824787078      -22.3612163765       28.5867758414  W2        9937            0.0000000000
     29517      9839  TIP3      H2            -32.3153287078      -23.4937463765       27.5909958414  W2        9937            0.0000000000
     29518      9840  TIP3      OH2           -34.4587087078      -30.3963963765       27.4264758414  W2        9938            0.0000000000
     29519      9840  TIP3      H1            -34.5034487078      -29.4570863765       27.6051758414  W2        9938            0.0000000000
     29520      9840  TIP3      H2            -35.3463887078      -30.6319063765       27.1566858414  W2        9938            0.0000000000
     29521      9841  TIP3      OH2           -26.7425087078      -20.6341563765       26.5855558414  W2        9944            0.0000000000
     29522      9841  TIP3      H1            -27.3864087078      -21.2652963765       26.9069258414  W2        9944            0.0000000000
     29523      9841  TIP3      H2            -25.9806787078      -21.1653563765       26.3539058414  W2        9944            0.0000000000
     29524      9842  TIP3      OH2           -22.1382187078      -20.8171663765       26.8193558414  W2        9946            0.0000000000
     29525      9842  TIP3      H1            -21.8551787078      -21.6116463765       27.2720458414  W2        9946            0.0000000000
     29526      9842  TIP3      H2            -21.3984287078      -20.5840663765       26.2584658414  W2        9946            0.0000000000
     29527      9843  TIP3      OH2           -31.1834887078      -24.9076763765       26.6768458414  W2        9948            0.0000000000
     29528      9843  TIP3      H1            -31.1190787078      -25.7017163765       27.2074858414  W2        9948            0.0000000000
     29529      9843  TIP3      H2            -30.5305687078      -25.0263963765       25.9870458414  W2        9948            0.0000000000
     29530      9844  TIP3      OH2           -25.8311487078      -23.8605063765       26.4126458414  W2        9950            0.0000000000
     29531      9844  TIP3      H1            -26.0997387078      -23.6802963765       27.3135358414  W2        9950            0.0000000000
     29532      9844  TIP3      H2            -26.0375887078      -24.7858863765       26.2812258414  W2        9950            0.0000000000
     29533      9845  TIP3      OH2           -30.0341087078      -26.9350563765       28.9826458414  W2        9953            0.0000000000
     29534      9845  TIP3      H1            -30.4939087078      -27.4192263765       29.6684958414  W2        9953            0.0000000000
     29535      9845  TIP3      H2            -29.7792387078      -27.6035163765       28.3466958414  W2        9953            0.0000000000
     29536      9846  TIP3      OH2           -28.9630687078      -28.6918763765       27.2449658414  W2        9955            0.0000000000
     29537      9846  TIP3      H1            -29.1435687078      -28.8467563765       26.3177958414  W2        9955            0.0000000000
     29538      9846  TIP3      H2            -28.0130187078      -28.5840063765       27.2897558414  W2        9955            0.0000000000
     29539      9847  TIP3      OH2           -19.5732387078      -26.3374563765       26.6907758414  W2        9957            0.0000000000
     29540      9847  TIP3      H1            -19.8467587078      -26.7619063765       25.8776058414  W2        9957            0.0000000000
     29541      9847  TIP3      H2            -19.5338287078      -25.4060063765       26.4738158414  W2        9957            0.0000000000
     29542      9848  TIP3      OH2           -29.0658987078      -18.0015063765       28.2463258414  W2        9971            0.0000000000
     29543      9848  TIP3      H1            -28.1328287078      -17.8436363765       28.3901658414  W2        9971            0.0000000000
     29544      9848  TIP3      H2            -29.3300187078      -17.3262063765       27.6214758414  W2        9971            0.0000000000
     29545      9849  TIP3      OH2           -35.4974087078      -23.3651263765       27.7291358414  W2        9972            0.0000000000
     29546      9849  TIP3      H1            -34.5834887078      -23.2862363765       28.0025258414  W2        9972            0.0000000000
     29547      9849  TIP3      H2            -35.4900987078      -24.0521663765       27.0626958414  W2        9972            0.0000000000
     29548      9850  TIP3      OH2           -18.4520887078      -27.5140563765       28.8805158414  W2        9982            0.0000000000
     29549      9850  TIP3      H1            -18.9739787078      -27.1576463765       28.1616058414  W2        9982            0.0000000000
     29550      9850  TIP3      H2            -18.4851687078      -26.8392763765       29.5586058414  W2        9982            0.0000000000
     29551      9851  TIP3      OH2           -20.1031887078      -30.2744963765       27.4312258414  W2        9983            0.0000000000
     29552      9851  TIP3      H1            -20.0067487078      -29.6077963765       26.7511958414  W2        9983            0.0000000000
     29553      9851  TIP3      H2            -20.2432287078      -31.0898663765       26.9497758414  W2        9983            0.0000000000
     29554      9852  TIP3      OH2           -20.8558087078      -32.8665163765       26.5487758414  W2        9988            0.0000000000
     29555      9852  TIP3      H1            -20.2452287078      -33.2378363765       27.1855958414  W2        9988            0.0000000000
     29556      9852  TIP3      H2            -21.6926587078      -33.2878263765       26.7447758414  W2        9988            0.0000000000
     29557      9853  TIP3      OH2           -18.7431387078      -33.9809363765       28.0909958414  W2        9998            0.0000000000
     29558      9853  TIP3      H1            -18.3308787078      -34.7023663765       27.6157958414  W2        9998            0.0000000000
     29559      9853  TIP3      H2            -18.0614887078      -33.3114763765       28.1494258414  W2        9998            0.0000000000
     29560      9854  TIP3      OH2           -35.1858087078      -35.9333963765       29.1967258414  W2        10019           0.0000000000
     29561      9854  TIP3      H1            -34.7467387078      -35.3223463765       28.6050758414  W2        10019           0.0000000000
     29562      9854  TIP3      H2            -35.8195687078      -35.3949863765       29.6707258414  W2        10019           0.0000000000
     29563      9855  TIP3      OH2           -33.3248987078      -34.0172463765       27.6391358414  W2        10024           0.0000000000
     29564      9855  TIP3      H1            -32.8335587078      -34.6470063765       27.1116858414  W2        10024           0.0000000000
     29565      9855  TIP3      H2            -32.7012687078      -33.7213063765       28.3022558414  W2        10024           0.0000000000
     29566      9856  TIP3      OH2           -26.4205087078      -18.7756863765       28.4918558414  W2        10026           0.0000000000
     29567      9856  TIP3      H1            -25.5544887078      -18.4089463765       28.3136758414  W2        10026           0.0000000000
     29568      9856  TIP3      H2            -26.6672287078      -19.2148863765       27.6779358414  W2        10026           0.0000000000
     29569      9857  TIP3      OH2           -33.4667387078      -19.0650963765       27.1194458414  W2        10030           0.0000000000
     29570      9857  TIP3      H1            -33.7342787078      -18.7788063765       27.9927558414  W2        10030           0.0000000000
     29571      9857  TIP3      H2            -32.6954787078      -19.6111763765       27.2716958414  W2        10030           0.0000000000
     29572      9858  TIP3      OH2            -7.3127187078      -28.8735463765       27.8423958414  W2        10063           0.0000000000
     29573      9858  TIP3      H1             -6.6117287078      -28.8508563765       28.4937958414  W2        10063           0.0000000000
     29574      9858  TIP3      H2             -7.0104287078      -29.5015763765       27.1863258414  W2        10063           0.0000000000
     29575      9859  TIP3      OH2            -5.0899187078      -27.9593563765       29.4406058414  W2        10072           0.0000000000
     29576      9859  TIP3      H1             -4.5103687078      -27.8093263765       30.1874958414  W2        10072           0.0000000000
     29577      9859  TIP3      H2             -4.6759187078      -27.4886163765       28.7172458414  W2        10072           0.0000000000
     29578      9860  TIP3      OH2            -1.3910787078      -36.2093163765       29.2535758414  W2        10076           0.0000000000
     29579      9860  TIP3      H1             -2.2910087078      -36.0704163765       29.5486358414  W2        10076           0.0000000000
     29580      9860  TIP3      H2             -1.1392387078      -35.3778563765       28.8517458414  W2        10076           0.0000000000
     29581      9861  TIP3      OH2            -0.2019387078      -21.8430763765       27.6299658414  W2        10078           0.0000000000
     29582      9861  TIP3      H1             -0.1285887078      -20.9040563765       27.8004958414  W2        10078           0.0000000000
     29583      9861  TIP3      H2              0.7035712922      -22.1482163765       27.5736958414  W2        10078           0.0000000000
     29584      9862  TIP3      OH2            -4.7895187078      -19.1120163765       28.2930758414  W2        10085           0.0000000000
     29585      9862  TIP3      H1             -4.4146787078      -19.8564063765       27.8223358414  W2        10085           0.0000000000
     29586      9862  TIP3      H2             -4.7851487078      -19.3819563765       29.2114058414  W2        10085           0.0000000000
     29587      9863  TIP3      OH2            -3.6126087078      -26.9265263765       27.0703958414  W2        10092           0.0000000000
     29588      9863  TIP3      H1             -3.5705287078      -27.1491363765       26.1403958414  W2        10092           0.0000000000
     29589      9863  TIP3      H2             -2.7633987078      -26.5278163765       27.2603858414  W2        10092           0.0000000000
     29590      9864  TIP3      OH2            -8.0398587078      -33.0507063765       27.7407258414  W2        10093           0.0000000000
     29591      9864  TIP3      H1             -8.2933787078      -33.0315463765       28.6635358414  W2        10093           0.0000000000
     29592      9864  TIP3      H2             -8.2966487078      -33.9221663765       27.4393458414  W2        10093           0.0000000000
     29593      9865  TIP3      OH2           -11.1575687078      -32.6050563765       26.8417658414  W2        10100           0.0000000000
     29594      9865  TIP3      H1            -11.5884987078      -33.0500463765       27.5715058414  W2        10100           0.0000000000
     29595      9865  TIP3      H2            -11.8756987078      -32.2334263765       26.3295158414  W2        10100           0.0000000000
     29596      9866  TIP3      OH2           -16.6410187078      -32.1169063765       29.3176758414  W2        10102           0.0000000000
     29597      9866  TIP3      H1            -16.1668487078      -31.5259163765       28.7327658414  W2        10102           0.0000000000
     29598      9866  TIP3      H2            -17.3583787078      -31.5866163765       29.6646858414  W2        10102           0.0000000000
     29599      9867  TIP3      OH2           -12.5393787078      -29.8277663765       28.2242058414  W2        10108           0.0000000000
     29600      9867  TIP3      H1            -13.0818687078      -30.2073863765       27.5329658414  W2        10108           0.0000000000
     29601      9867  TIP3      H2            -11.7058887078      -29.6332963765       27.7956158414  W2        10108           0.0000000000
     29602      9868  TIP3      OH2            -5.3064187078      -32.4482063765       28.3592758414  W2        10116           0.0000000000
     29603      9868  TIP3      H1             -6.2449987078      -32.3366463765       28.2081558414  W2        10116           0.0000000000
     29604      9868  TIP3      H2             -5.0092087078      -31.5915163765       28.6658458414  W2        10116           0.0000000000
     29605      9869  TIP3      OH2            -7.0786887078      -23.8037663765       29.1854758414  W2        10120           0.0000000000
     29606      9869  TIP3      H1             -7.3738487078      -22.9769763765       29.5669558414  W2        10120           0.0000000000
     29607      9869  TIP3      H2             -7.7816887078      -24.4230763765       29.3816158414  W2        10120           0.0000000000
     29608      9870  TIP3      OH2             0.2968012922      -30.3715263765       29.7146858414  W2        10124           0.0000000000
     29609      9870  TIP3      H1             -0.2575687078      -30.7677263765       29.0424358414  W2        10124           0.0000000000
     29610      9870  TIP3      H2              0.3971612922      -29.4610063765       29.4370158414  W2        10124           0.0000000000
     29611      9871  TIP3      OH2           -15.9495587078      -27.5869663765       27.9211958414  W2        10129           0.0000000000
     29612      9871  TIP3      H1            -15.3335687078      -26.9602463765       28.3006758414  W2        10129           0.0000000000
     29613      9871  TIP3      H2            -16.8112987078      -27.2709863765       28.1928458414  W2        10129           0.0000000000
     29614      9872  TIP3      OH2            -4.0154687078      -23.6089063765       27.9999558414  W2        10134           0.0000000000
     29615      9872  TIP3      H1             -3.6621587078      -23.9889263765       28.8043058414  W2        10134           0.0000000000
     29616      9872  TIP3      H2             -4.9641187078      -23.7024263765       28.0868858414  W2        10134           0.0000000000
     29617      9873  TIP3      OH2             0.4879712922      -19.1296563765       28.2009758414  W2        10136           0.0000000000
     29618      9873  TIP3      H1              1.2317612922      -18.5436063765       28.0611358414  W2        10136           0.0000000000
     29619      9873  TIP3      H2             -0.2062187078      -18.5610763765       28.5342158414  W2        10136           0.0000000000
     29620      9874  TIP3      OH2            -9.9246887078      -22.4972963765       26.4469558414  W2        10140           0.0000000000
     29621      9874  TIP3      H1             -9.6857087078      -23.2454863765       25.8998458414  W2        10140           0.0000000000
     29622      9874  TIP3      H2            -10.1935587078      -22.8851263765       27.2797358414  W2        10140           0.0000000000
     29623      9875  TIP3      OH2           -10.9876287078      -22.9269163765       28.9032158414  W2        10141           0.0000000000
     29624      9875  TIP3      H1            -10.8408287078      -23.4469363765       29.6933058414  W2        10141           0.0000000000
     29625      9875  TIP3      H2            -10.9904587078      -22.0201563765       29.2098058414  W2        10141           0.0000000000
     29626      9876  TIP3      OH2           -14.5345187078      -25.6745863765       29.4137558414  W2        10142           0.0000000000
     29627      9876  TIP3      H1            -15.2205887078      -25.3223363765       29.9807258414  W2        10142           0.0000000000
     29628      9876  TIP3      H2            -14.0117287078      -24.9116263765       29.1671858414  W2        10142           0.0000000000
     29629      9877  TIP3      OH2            -8.2499087078      -21.2295563765       29.6526358414  W2        10145           0.0000000000
     29630      9877  TIP3      H1             -9.0662987078      -20.7325863765       29.7050658414  W2        10145           0.0000000000
     29631      9877  TIP3      H2             -7.7202787078      -20.7542063765       29.0125158414  W2        10145           0.0000000000
     29632      9878  TIP3      OH2           -10.9115987078      -20.1858363765       29.6343258414  W2        10149           0.0000000000
     29633      9878  TIP3      H1            -10.7507287078      -19.3860863765       29.1335858414  W2        10149           0.0000000000
     29634      9878  TIP3      H2            -11.1088187078      -19.8792363765       30.5193858414  W2        10149           0.0000000000
     29635      9879  TIP3      OH2           -12.1771587078      -33.4879163765       29.2500858414  W2        10150           0.0000000000
     29636      9879  TIP3      H1            -12.2606787078      -32.5996063765       29.5967258414  W2        10150           0.0000000000
     29637      9879  TIP3      H2            -11.2871287078      -33.7532463765       29.4817658414  W2        10150           0.0000000000
     29638      9880  TIP3      OH2           -13.9186287078      -23.0606963765       28.3105358414  W2        10153           0.0000000000
     29639      9880  TIP3      H1            -13.3264787078      -22.3612163765       28.5867758414  W2        10153           0.0000000000
     29640      9880  TIP3      H2            -13.4593287078      -23.4937463765       27.5909958414  W2        10153           0.0000000000
     29641      9881  TIP3      OH2           -15.6027087078      -30.3963963765       27.4264758414  W2        10154           0.0000000000
     29642      9881  TIP3      H1            -15.6474487078      -29.4570863765       27.6051758414  W2        10154           0.0000000000
     29643      9881  TIP3      H2            -16.4903887078      -30.6319063765       27.1566858414  W2        10154           0.0000000000
     29644      9882  TIP3      OH2            -7.8865087078      -20.6341563765       26.5855558414  W2        10160           0.0000000000
     29645      9882  TIP3      H1             -8.5304087078      -21.2652963765       26.9069258414  W2        10160           0.0000000000
     29646      9882  TIP3      H2             -7.1246787078      -21.1653563765       26.3539058414  W2        10160           0.0000000000
     29647      9883  TIP3      OH2            -3.2822187078      -20.8171663765       26.8193558414  W2        10162           0.0000000000
     29648      9883  TIP3      H1             -2.9991787078      -21.6116463765       27.2720458414  W2        10162           0.0000000000
     29649      9883  TIP3      H2             -2.5424287078      -20.5840663765       26.2584658414  W2        10162           0.0000000000
     29650      9884  TIP3      OH2           -12.3274887078      -24.9076763765       26.6768458414  W2        10164           0.0000000000
     29651      9884  TIP3      H1            -12.2630787078      -25.7017163765       27.2074858414  W2        10164           0.0000000000
     29652      9884  TIP3      H2            -11.6745687078      -25.0263963765       25.9870458414  W2        10164           0.0000000000
     29653      9885  TIP3      OH2            -6.9751487078      -23.8605063765       26.4126458414  W2        10166           0.0000000000
     29654      9885  TIP3      H1             -7.2437387078      -23.6802963765       27.3135358414  W2        10166           0.0000000000
     29655      9885  TIP3      H2             -7.1815887078      -24.7858863765       26.2812258414  W2        10166           0.0000000000
     29656      9886  TIP3      OH2           -11.1781087078      -26.9350563765       28.9826458414  W2        10169           0.0000000000
     29657      9886  TIP3      H1            -11.6379087078      -27.4192263765       29.6684958414  W2        10169           0.0000000000
     29658      9886  TIP3      H2            -10.9232387078      -27.6035163765       28.3466958414  W2        10169           0.0000000000
     29659      9887  TIP3      OH2           -10.1070687078      -28.6918763765       27.2449658414  W2        10171           0.0000000000
     29660      9887  TIP3      H1            -10.2875687078      -28.8467563765       26.3177958414  W2        10171           0.0000000000
     29661      9887  TIP3      H2             -9.1570187078      -28.5840063765       27.2897558414  W2        10171           0.0000000000
     29662      9888  TIP3      OH2            -0.7172387078      -26.3374563765       26.6907758414  W2        10173           0.0000000000
     29663      9888  TIP3      H1             -0.9907587078      -26.7619063765       25.8776058414  W2        10173           0.0000000000
     29664      9888  TIP3      H2             -0.6778287078      -25.4060063765       26.4738158414  W2        10173           0.0000000000
     29665      9889  TIP3      OH2           -10.2098987078      -18.0015063765       28.2463258414  W2        10187           0.0000000000
     29666      9889  TIP3      H1             -9.2768287078      -17.8436363765       28.3901658414  W2        10187           0.0000000000
     29667      9889  TIP3      H2            -10.4740187078      -17.3262063765       27.6214758414  W2        10187           0.0000000000
     29668      9890  TIP3      OH2           -16.6414087078      -23.3651263765       27.7291358414  W2        10188           0.0000000000
     29669      9890  TIP3      H1            -15.7274887078      -23.2862363765       28.0025258414  W2        10188           0.0000000000
     29670      9890  TIP3      H2            -16.6340987078      -24.0521663765       27.0626958414  W2        10188           0.0000000000
     29671      9891  TIP3      OH2             0.4039112922      -27.5140563765       28.8805158414  W2        10198           0.0000000000
     29672      9891  TIP3      H1             -0.1179787078      -27.1576463765       28.1616058414  W2        10198           0.0000000000
     29673      9891  TIP3      H2              0.3708312922      -26.8392763765       29.5586058414  W2        10198           0.0000000000
     29674      9892  TIP3      OH2            -1.2471887078      -30.2744963765       27.4312258414  W2        10199           0.0000000000
     29675      9892  TIP3      H1             -1.1507487078      -29.6077963765       26.7511958414  W2        10199           0.0000000000
     29676      9892  TIP3      H2             -1.3872287078      -31.0898663765       26.9497758414  W2        10199           0.0000000000
     29677      9893  TIP3      OH2            -1.9998087078      -32.8665163765       26.5487758414  W2        10204           0.0000000000
     29678      9893  TIP3      H1             -1.3892287078      -33.2378363765       27.1855958414  W2        10204           0.0000000000
     29679      9893  TIP3      H2             -2.8366587078      -33.2878263765       26.7447758414  W2        10204           0.0000000000
     29680      9894  TIP3      OH2             0.1128612922      -33.9809363765       28.0909958414  W2        10214           0.0000000000
     29681      9894  TIP3      H1              0.5251212922      -34.7023663765       27.6157958414  W2        10214           0.0000000000
     29682      9894  TIP3      H2              0.7945112922      -33.3114763765       28.1494258414  W2        10214           0.0000000000
     29683      9895  TIP3      OH2           -16.3298087078      -35.9333963765       29.1967258414  W2        10235           0.0000000000
     29684      9895  TIP3      H1            -15.8907387078      -35.3223463765       28.6050758414  W2        10235           0.0000000000
     29685      9895  TIP3      H2            -16.9635687078      -35.3949863765       29.6707258414  W2        10235           0.0000000000
     29686      9896  TIP3      OH2           -14.4688987078      -34.0172463765       27.6391358414  W2        10240           0.0000000000
     29687      9896  TIP3      H1            -13.9775587078      -34.6470063765       27.1116858414  W2        10240           0.0000000000
     29688      9896  TIP3      H2            -13.8452687078      -33.7213063765       28.3022558414  W2        10240           0.0000000000
     29689      9897  TIP3      OH2            -7.5645087078      -18.7756863765       28.4918558414  W2        10242           0.0000000000
     29690      9897  TIP3      H1             -6.6984887078      -18.4089463765       28.3136758414  W2        10242           0.0000000000
     29691      9897  TIP3      H2             -7.8112287078      -19.2148863765       27.6779358414  W2        10242           0.0000000000
     29692      9898  TIP3      OH2           -14.6107387078      -19.0650963765       27.1194458414  W2        10246           0.0000000000
     29693      9898  TIP3      H1            -14.8782787078      -18.7788063765       27.9927558414  W2        10246           0.0000000000
     29694      9898  TIP3      H2            -13.8394787078      -19.6111763765       27.2716958414  W2        10246           0.0000000000
     29695      9899  TIP3      OH2            11.5432812922      -28.8735463765       27.8423958414  W2        10279           0.0000000000
     29696      9899  TIP3      H1             12.2442712922      -28.8508563765       28.4937958414  W2        10279           0.0000000000
     29697      9899  TIP3      H2             11.8455712922      -29.5015763765       27.1863258414  W2        10279           0.0000000000
     29698      9900  TIP3      OH2            13.7660812922      -27.9593563765       29.4406058414  W2        10288           0.0000000000
     29699      9900  TIP3      H1             14.3456312922      -27.8093263765       30.1874958414  W2        10288           0.0000000000
     29700      9900  TIP3      H2             14.1800812922      -27.4886163765       28.7172458414  W2        10288           0.0000000000
     29701      9901  TIP3      OH2            17.4649212922      -36.2093163765       29.2535758414  W2        10292           0.0000000000
     29702      9901  TIP3      H1             16.5649912922      -36.0704163765       29.5486358414  W2        10292           0.0000000000
     29703      9901  TIP3      H2             17.7167612922      -35.3778563765       28.8517458414  W2        10292           0.0000000000
     29704      9902  TIP3      OH2            18.6540612922      -21.8430763765       27.6299658414  W2        10294           0.0000000000
     29705      9902  TIP3      H1             18.7274112922      -20.9040563765       27.8004958414  W2        10294           0.0000000000
     29706      9902  TIP3      H2             19.5595712922      -22.1482163765       27.5736958414  W2        10294           0.0000000000
     29707      9903  TIP3      OH2            14.0664812922      -19.1120163765       28.2930758414  W2        10301           0.0000000000
     29708      9903  TIP3      H1             14.4413212922      -19.8564063765       27.8223358414  W2        10301           0.0000000000
     29709      9903  TIP3      H2             14.0708512922      -19.3819563765       29.2114058414  W2        10301           0.0000000000
     29710      9904  TIP3      OH2            15.2433912922      -26.9265263765       27.0703958414  W2        10308           0.0000000000
     29711      9904  TIP3      H1             15.2854712922      -27.1491363765       26.1403958414  W2        10308           0.0000000000
     29712      9904  TIP3      H2             16.0926012922      -26.5278163765       27.2603858414  W2        10308           0.0000000000
     29713      9905  TIP3      OH2            10.8161412922      -33.0507063765       27.7407258414  W2        10309           0.0000000000
     29714      9905  TIP3      H1             10.5626212922      -33.0315463765       28.6635358414  W2        10309           0.0000000000
     29715      9905  TIP3      H2             10.5593512922      -33.9221663765       27.4393458414  W2        10309           0.0000000000
     29716      9906  TIP3      OH2             7.6984312922      -32.6050563765       26.8417658414  W2        10316           0.0000000000
     29717      9906  TIP3      H1              7.2675012922      -33.0500463765       27.5715058414  W2        10316           0.0000000000
     29718      9906  TIP3      H2              6.9803012922      -32.2334263765       26.3295158414  W2        10316           0.0000000000
     29719      9907  TIP3      OH2             2.2149812922      -32.1169063765       29.3176758414  W2        10318           0.0000000000
     29720      9907  TIP3      H1              2.6891512922      -31.5259163765       28.7327658414  W2        10318           0.0000000000
     29721      9907  TIP3      H2              1.4976212922      -31.5866163765       29.6646858414  W2        10318           0.0000000000
     29722      9908  TIP3      OH2             6.3166212922      -29.8277663765       28.2242058414  W2        10324           0.0000000000
     29723      9908  TIP3      H1              5.7741312922      -30.2073863765       27.5329658414  W2        10324           0.0000000000
     29724      9908  TIP3      H2              7.1501112922      -29.6332963765       27.7956158414  W2        10324           0.0000000000
     29725      9909  TIP3      OH2            13.5495812922      -32.4482063765       28.3592758414  W2        10332           0.0000000000
     29726      9909  TIP3      H1             12.6110012922      -32.3366463765       28.2081558414  W2        10332           0.0000000000
     29727      9909  TIP3      H2             13.8467912922      -31.5915163765       28.6658458414  W2        10332           0.0000000000
     29728      9910  TIP3      OH2            11.7773112922      -23.8037663765       29.1854758414  W2        10336           0.0000000000
     29729      9910  TIP3      H1             11.4821512922      -22.9769763765       29.5669558414  W2        10336           0.0000000000
     29730      9910  TIP3      H2             11.0743112922      -24.4230763765       29.3816158414  W2        10336           0.0000000000
     29731      9911  TIP3      OH2            19.1528012922      -30.3715263765       29.7146858414  W2        10340           0.0000000000
     29732      9911  TIP3      H1             18.5984312922      -30.7677263765       29.0424358414  W2        10340           0.0000000000
     29733      9911  TIP3      H2             19.2531612922      -29.4610063765       29.4370158414  W2        10340           0.0000000000
     29734      9912  TIP3      OH2             2.9064412922      -27.5869663765       27.9211958414  W2        10345           0.0000000000
     29735      9912  TIP3      H1              3.5224312922      -26.9602463765       28.3006758414  W2        10345           0.0000000000
     29736      9912  TIP3      H2              2.0447012922      -27.2709863765       28.1928458414  W2        10345           0.0000000000
     29737      9913  TIP3      OH2            14.8405312922      -23.6089063765       27.9999558414  W2        10350           0.0000000000
     29738      9913  TIP3      H1             15.1938412922      -23.9889263765       28.8043058414  W2        10350           0.0000000000
     29739      9913  TIP3      H2             13.8918812922      -23.7024263765       28.0868858414  W2        10350           0.0000000000
     29740      9914  TIP3      OH2            19.3439712922      -19.1296563765       28.2009758414  W2        10352           0.0000000000
     29741      9914  TIP3      H1             20.0877612922      -18.5436063765       28.0611358414  W2        10352           0.0000000000
     29742      9914  TIP3      H2             18.6497812922      -18.5610763765       28.5342158414  W2        10352           0.0000000000
     29743      9915  TIP3      OH2             8.9313112922      -22.4972963765       26.4469558414  W2        10356           0.0000000000
     29744      9915  TIP3      H1              9.1702912922      -23.2454863765       25.8998458414  W2        10356           0.0000000000
     29745      9915  TIP3      H2              8.6624412922      -22.8851263765       27.2797358414  W2        10356           0.0000000000
     29746      9916  TIP3      OH2             7.8683712922      -22.9269163765       28.9032158414  W2        10357           0.0000000000
     29747      9916  TIP3      H1              8.0151712922      -23.4469363765       29.6933058414  W2        10357           0.0000000000
     29748      9916  TIP3      H2              7.8655412922      -22.0201563765       29.2098058414  W2        10357           0.0000000000
     29749      9917  TIP3      OH2             4.3214812922      -25.6745863765       29.4137558414  W2        10358           0.0000000000
     29750      9917  TIP3      H1              3.6354112922      -25.3223363765       29.9807258414  W2        10358           0.0000000000
     29751      9917  TIP3      H2              4.8442712922      -24.9116263765       29.1671858414  W2        10358           0.0000000000
     29752      9918  TIP3      OH2            10.6060912922      -21.2295563765       29.6526358414  W2        10361           0.0000000000
     29753      9918  TIP3      H1              9.7897012922      -20.7325863765       29.7050658414  W2        10361           0.0000000000
     29754      9918  TIP3      H2             11.1357212922      -20.7542063765       29.0125158414  W2        10361           0.0000000000
     29755      9919  TIP3      OH2             7.9444012922      -20.1858363765       29.6343258414  W2        10365           0.0000000000
     29756      9919  TIP3      H1              8.1052712922      -19.3860863765       29.1335858414  W2        10365           0.0000000000
     29757      9919  TIP3      H2              7.7471812922      -19.8792363765       30.5193858414  W2        10365           0.0000000000
     29758      9920  TIP3      OH2             6.6788412922      -33.4879163765       29.2500858414  W2        10366           0.0000000000
     29759      9920  TIP3      H1              6.5953212922      -32.5996063765       29.5967258414  W2        10366           0.0000000000
     29760      9920  TIP3      H2              7.5688712922      -33.7532463765       29.4817658414  W2        10366           0.0000000000
     29761      9921  TIP3      OH2             4.9373712922      -23.0606963765       28.3105358414  W2        10369           0.0000000000
     29762      9921  TIP3      H1              5.5295212922      -22.3612163765       28.5867758414  W2        10369           0.0000000000
     29763      9921  TIP3      H2              5.3966712922      -23.4937463765       27.5909958414  W2        10369           0.0000000000
     29764      9922  TIP3      OH2             3.2532912922      -30.3963963765       27.4264758414  W2        10370           0.0000000000
     29765      9922  TIP3      H1              3.2085512922      -29.4570863765       27.6051758414  W2        10370           0.0000000000
     29766      9922  TIP3      H2              2.3656112922      -30.6319063765       27.1566858414  W2        10370           0.0000000000
     29767      9923  TIP3      OH2            10.9694912922      -20.6341563765       26.5855558414  W2        10376           0.0000000000
     29768      9923  TIP3      H1             10.3255912922      -21.2652963765       26.9069258414  W2        10376           0.0000000000
     29769      9923  TIP3      H2             11.7313212922      -21.1653563765       26.3539058414  W2        10376           0.0000000000
     29770      9924  TIP3      OH2            15.5737812922      -20.8171663765       26.8193558414  W2        10378           0.0000000000
     29771      9924  TIP3      H1             15.8568212922      -21.6116463765       27.2720458414  W2        10378           0.0000000000
     29772      9924  TIP3      H2             16.3135712922      -20.5840663765       26.2584658414  W2        10378           0.0000000000
     29773      9925  TIP3      OH2             6.5285112922      -24.9076763765       26.6768458414  W2        10380           0.0000000000
     29774      9925  TIP3      H1              6.5929212922      -25.7017163765       27.2074858414  W2        10380           0.0000000000
     29775      9925  TIP3      H2              7.1814312922      -25.0263963765       25.9870458414  W2        10380           0.0000000000
     29776      9926  TIP3      OH2            11.8808512922      -23.8605063765       26.4126458414  W2        10382           0.0000000000
     29777      9926  TIP3      H1             11.6122612922      -23.6802963765       27.3135358414  W2        10382           0.0000000000
     29778      9926  TIP3      H2             11.6744112922      -24.7858863765       26.2812258414  W2        10382           0.0000000000
     29779      9927  TIP3      OH2             7.6778912922      -26.9350563765       28.9826458414  W2        10385           0.0000000000
     29780      9927  TIP3      H1              7.2180912922      -27.4192263765       29.6684958414  W2        10385           0.0000000000
     29781      9927  TIP3      H2              7.9327612922      -27.6035163765       28.3466958414  W2        10385           0.0000000000
     29782      9928  TIP3      OH2             8.7489312922      -28.6918763765       27.2449658414  W2        10387           0.0000000000
     29783      9928  TIP3      H1              8.5684312922      -28.8467563765       26.3177958414  W2        10387           0.0000000000
     29784      9928  TIP3      H2              9.6989812922      -28.5840063765       27.2897558414  W2        10387           0.0000000000
     29785      9929  TIP3      OH2            18.1387612922      -26.3374563765       26.6907758414  W2        10389           0.0000000000
     29786      9929  TIP3      H1             17.8652412922      -26.7619063765       25.8776058414  W2        10389           0.0000000000
     29787      9929  TIP3      H2             18.1781712922      -25.4060063765       26.4738158414  W2        10389           0.0000000000
     29788      9930  TIP3      OH2             8.6461012922      -18.0015063765       28.2463258414  W2        10403           0.0000000000
     29789      9930  TIP3      H1              9.5791712922      -17.8436363765       28.3901658414  W2        10403           0.0000000000
     29790      9930  TIP3      H2              8.3819812922      -17.3262063765       27.6214758414  W2        10403           0.0000000000
     29791      9931  TIP3      OH2             2.2145912922      -23.3651263765       27.7291358414  W2        10404           0.0000000000
     29792      9931  TIP3      H1              3.1285112922      -23.2862363765       28.0025258414  W2        10404           0.0000000000
     29793      9931  TIP3      H2              2.2219012922      -24.0521663765       27.0626958414  W2        10404           0.0000000000
     29794      9932  TIP3      OH2            19.2599112922      -27.5140563765       28.8805158414  W2        10414           0.0000000000
     29795      9932  TIP3      H1             18.7380212922      -27.1576463765       28.1616058414  W2        10414           0.0000000000
     29796      9932  TIP3      H2             19.2268312922      -26.8392763765       29.5586058414  W2        10414           0.0000000000
     29797      9933  TIP3      OH2            17.6088112922      -30.2744963765       27.4312258414  W2        10415           0.0000000000
     29798      9933  TIP3      H1             17.7052512922      -29.6077963765       26.7511958414  W2        10415           0.0000000000
     29799      9933  TIP3      H2             17.4687712922      -31.0898663765       26.9497758414  W2        10415           0.0000000000
     29800      9934  TIP3      OH2            16.8561912922      -32.8665163765       26.5487758414  W2        10420           0.0000000000
     29801      9934  TIP3      H1             17.4667712922      -33.2378363765       27.1855958414  W2        10420           0.0000000000
     29802      9934  TIP3      H2             16.0193412922      -33.2878263765       26.7447758414  W2        10420           0.0000000000
     29803      9935  TIP3      OH2            18.9688612922      -33.9809363765       28.0909958414  W2        10430           0.0000000000
     29804      9935  TIP3      H1             19.3811212922      -34.7023663765       27.6157958414  W2        10430           0.0000000000
     29805      9935  TIP3      H2             19.6505112922      -33.3114763765       28.1494258414  W2        10430           0.0000000000
     29806      9936  TIP3      OH2             2.5261912922      -35.9333963765       29.1967258414  W2        10451           0.0000000000
     29807      9936  TIP3      H1              2.9652612922      -35.3223463765       28.6050758414  W2        10451           0.0000000000
     29808      9936  TIP3      H2              1.8924312922      -35.3949863765       29.6707258414  W2        10451           0.0000000000
     29809      9937  TIP3      OH2             4.3871012922      -34.0172463765       27.6391358414  W2        10456           0.0000000000
     29810      9937  TIP3      H1              4.8784412922      -34.6470063765       27.1116858414  W2        10456           0.0000000000
     29811      9937  TIP3      H2              5.0107312922      -33.7213063765       28.3022558414  W2        10456           0.0000000000
     29812      9938  TIP3      OH2            11.2914912922      -18.7756863765       28.4918558414  W2        10458           0.0000000000
     29813      9938  TIP3      H1             12.1575112922      -18.4089463765       28.3136758414  W2        10458           0.0000000000
     29814      9938  TIP3      H2             11.0447712922      -19.2148863765       27.6779358414  W2        10458           0.0000000000
     29815      9939  TIP3      OH2             4.2452612922      -19.0650963765       27.1194458414  W2        10462           0.0000000000
     29816      9939  TIP3      H1              3.9777212922      -18.7788063765       27.9927558414  W2        10462           0.0000000000
     29817      9939  TIP3      H2              5.0165212922      -19.6111763765       27.2716958414  W2        10462           0.0000000000
     29818      9940  TIP3      OH2            30.3992812922      -28.8735463765       27.8423958414  W2        10493           0.0000000000
     29819      9940  TIP3      H1             31.1002712922      -28.8508563765       28.4937958414  W2        10493           0.0000000000
     29820      9940  TIP3      H2             30.7015712922      -29.5015763765       27.1863258414  W2        10493           0.0000000000
     29821      9941  TIP3      OH2            32.6220812922      -27.9593563765       29.4406058414  W2        10501           0.0000000000
     29822      9941  TIP3      H1             33.2016312922      -27.8093263765       30.1874958414  W2        10501           0.0000000000
     29823      9941  TIP3      H2             33.0360812922      -27.4886163765       28.7172458414  W2        10501           0.0000000000
     29824      9942  TIP3      OH2            36.3209212922      -36.2093163765       29.2535758414  W2        10505           0.0000000000
     29825      9942  TIP3      H1             35.4209912922      -36.0704163765       29.5486358414  W2        10505           0.0000000000
     29826      9942  TIP3      H2             36.5727612922      -35.3778563765       28.8517458414  W2        10505           0.0000000000
     29827      9943  TIP3      OH2            32.9224812922      -19.1120163765       28.2930758414  W2        10512           0.0000000000
     29828      9943  TIP3      H1             33.2973212922      -19.8564063765       27.8223358414  W2        10512           0.0000000000
     29829      9943  TIP3      H2             32.9268512922      -19.3819563765       29.2114058414  W2        10512           0.0000000000
     29830      9944  TIP3      OH2            34.0993912922      -26.9265263765       27.0703958414  W2        10519           0.0000000000
     29831      9944  TIP3      H1             34.1414712922      -27.1491363765       26.1403958414  W2        10519           0.0000000000
     29832      9944  TIP3      H2             34.9486012922      -26.5278163765       27.2603858414  W2        10519           0.0000000000
     29833      9945  TIP3      OH2            29.6721412922      -33.0507063765       27.7407258414  W2        10520           0.0000000000
     29834      9945  TIP3      H1             29.4186212922      -33.0315463765       28.6635358414  W2        10520           0.0000000000
     29835      9945  TIP3      H2             29.4153512922      -33.9221663765       27.4393458414  W2        10520           0.0000000000
     29836      9946  TIP3      OH2            26.5544312922      -32.6050563765       26.8417658414  W2        10527           0.0000000000
     29837      9946  TIP3      H1             26.1235012922      -33.0500463765       27.5715058414  W2        10527           0.0000000000
     29838      9946  TIP3      H2             25.8363012922      -32.2334263765       26.3295158414  W2        10527           0.0000000000
     29839      9947  TIP3      OH2            21.0709812922      -32.1169063765       29.3176758414  W2        10529           0.0000000000
     29840      9947  TIP3      H1             21.5451512922      -31.5259163765       28.7327658414  W2        10529           0.0000000000
     29841      9947  TIP3      H2             20.3536212922      -31.5866163765       29.6646858414  W2        10529           0.0000000000
     29842      9948  TIP3      OH2            25.1726212922      -29.8277663765       28.2242058414  W2        10535           0.0000000000
     29843      9948  TIP3      H1             24.6301312922      -30.2073863765       27.5329658414  W2        10535           0.0000000000
     29844      9948  TIP3      H2             26.0061112922      -29.6332963765       27.7956158414  W2        10535           0.0000000000
     29845      9949  TIP3      OH2            32.4055812922      -32.4482063765       28.3592758414  W2        10543           0.0000000000
     29846      9949  TIP3      H1             31.4670012922      -32.3366463765       28.2081558414  W2        10543           0.0000000000
     29847      9949  TIP3      H2             32.7027912922      -31.5915163765       28.6658458414  W2        10543           0.0000000000
     29848      9950  TIP3      OH2            30.6333112922      -23.8037663765       29.1854758414  W2        10547           0.0000000000
     29849      9950  TIP3      H1             30.3381512922      -22.9769763765       29.5669558414  W2        10547           0.0000000000
     29850      9950  TIP3      H2             29.9303112922      -24.4230763765       29.3816158414  W2        10547           0.0000000000
     29851      9951  TIP3      OH2            21.7624412922      -27.5869663765       27.9211958414  W2        10554           0.0000000000
     29852      9951  TIP3      H1             22.3784312922      -26.9602463765       28.3006758414  W2        10554           0.0000000000
     29853      9951  TIP3      H2             20.9007012922      -27.2709863765       28.1928458414  W2        10554           0.0000000000
     29854      9952  TIP3      OH2            33.6965312922      -23.6089063765       27.9999558414  W2        10559           0.0000000000
     29855      9952  TIP3      H1             34.0498412922      -23.9889263765       28.8043058414  W2        10559           0.0000000000
     29856      9952  TIP3      H2             32.7478812922      -23.7024263765       28.0868858414  W2        10559           0.0000000000
     29857      9953  TIP3      OH2            27.7873112922      -22.4972963765       26.4469558414  W2        10564           0.0000000000
     29858      9953  TIP3      H1             28.0262912922      -23.2454863765       25.8998458414  W2        10564           0.0000000000
     29859      9953  TIP3      H2             27.5184412922      -22.8851263765       27.2797358414  W2        10564           0.0000000000
     29860      9954  TIP3      OH2            26.7243712922      -22.9269163765       28.9032158414  W2        10565           0.0000000000
     29861      9954  TIP3      H1             26.8711712922      -23.4469363765       29.6933058414  W2        10565           0.0000000000
     29862      9954  TIP3      H2             26.7215412922      -22.0201563765       29.2098058414  W2        10565           0.0000000000
     29863      9955  TIP3      OH2            23.1774812922      -25.6745863765       29.4137558414  W2        10566           0.0000000000
     29864      9955  TIP3      H1             22.4914112922      -25.3223363765       29.9807258414  W2        10566           0.0000000000
     29865      9955  TIP3      H2             23.7002712922      -24.9116263765       29.1671858414  W2        10566           0.0000000000
     29866      9956  TIP3      OH2            29.4620912922      -21.2295563765       29.6526358414  W2        10569           0.0000000000
     29867      9956  TIP3      H1             28.6457012922      -20.7325863765       29.7050658414  W2        10569           0.0000000000
     29868      9956  TIP3      H2             29.9917212922      -20.7542063765       29.0125158414  W2        10569           0.0000000000
     29869      9957  TIP3      OH2            26.8004012922      -20.1858363765       29.6343258414  W2        10573           0.0000000000
     29870      9957  TIP3      H1             26.9612712922      -19.3860863765       29.1335858414  W2        10573           0.0000000000
     29871      9957  TIP3      H2             26.6031812922      -19.8792363765       30.5193858414  W2        10573           0.0000000000
     29872      9958  TIP3      OH2            25.5348412922      -33.4879163765       29.2500858414  W2        10574           0.0000000000
     29873      9958  TIP3      H1             25.4513212922      -32.5996063765       29.5967258414  W2        10574           0.0000000000
     29874      9958  TIP3      H2             26.4248712922      -33.7532463765       29.4817658414  W2        10574           0.0000000000
     29875      9959  TIP3      OH2            23.7933712922      -23.0606963765       28.3105358414  W2        10577           0.0000000000
     29876      9959  TIP3      H1             24.3855212922      -22.3612163765       28.5867758414  W2        10577           0.0000000000
     29877      9959  TIP3      H2             24.2526712922      -23.4937463765       27.5909958414  W2        10577           0.0000000000
     29878      9960  TIP3      OH2            22.1092912922      -30.3963963765       27.4264758414  W2        10578           0.0000000000
     29879      9960  TIP3      H1             22.0645512922      -29.4570863765       27.6051758414  W2        10578           0.0000000000
     29880      9960  TIP3      H2             21.2216112922      -30.6319063765       27.1566858414  W2        10578           0.0000000000
     29881      9961  TIP3      OH2            29.8254912922      -20.6341563765       26.5855558414  W2        10584           0.0000000000
     29882      9961  TIP3      H1             29.1815912922      -21.2652963765       26.9069258414  W2        10584           0.0000000000
     29883      9961  TIP3      H2             30.5873212922      -21.1653563765       26.3539058414  W2        10584           0.0000000000
     29884      9962  TIP3      OH2            34.4297812922      -20.8171663765       26.8193558414  W2        10586           0.0000000000
     29885      9962  TIP3      H1             34.7128212922      -21.6116463765       27.2720458414  W2        10586           0.0000000000
     29886      9962  TIP3      H2             35.1695712922      -20.5840663765       26.2584658414  W2        10586           0.0000000000
     29887      9963  TIP3      OH2            25.3845112922      -24.9076763765       26.6768458414  W2        10588           0.0000000000
     29888      9963  TIP3      H1             25.4489212922      -25.7017163765       27.2074858414  W2        10588           0.0000000000
     29889      9963  TIP3      H2             26.0374312922      -25.0263963765       25.9870458414  W2        10588           0.0000000000
     29890      9964  TIP3      OH2            30.7368512922      -23.8605063765       26.4126458414  W2        10590           0.0000000000
     29891      9964  TIP3      H1             30.4682612922      -23.6802963765       27.3135358414  W2        10590           0.0000000000
     29892      9964  TIP3      H2             30.5304112922      -24.7858863765       26.2812258414  W2        10590           0.0000000000
     29893      9965  TIP3      OH2            26.5338912922      -26.9350563765       28.9826458414  W2        10593           0.0000000000
     29894      9965  TIP3      H1             26.0740912922      -27.4192263765       29.6684958414  W2        10593           0.0000000000
     29895      9965  TIP3      H2             26.7887612922      -27.6035163765       28.3466958414  W2        10593           0.0000000000
     29896      9966  TIP3      OH2            27.6049312922      -28.6918763765       27.2449658414  W2        10595           0.0000000000
     29897      9966  TIP3      H1             27.4244312922      -28.8467563765       26.3177958414  W2        10595           0.0000000000
     29898      9966  TIP3      H2             28.5549812922      -28.5840063765       27.2897558414  W2        10595           0.0000000000
     29899      9967  TIP3      OH2            27.5021012922      -18.0015063765       28.2463258414  W2        10610           0.0000000000
     29900      9967  TIP3      H1             28.4351712922      -17.8436363765       28.3901658414  W2        10610           0.0000000000
     29901      9967  TIP3      H2             27.2379812922      -17.3262063765       27.6214758414  W2        10610           0.0000000000
     29902      9968  TIP3      OH2            21.0705912922      -23.3651263765       27.7291358414  W2        10611           0.0000000000
     29903      9968  TIP3      H1             21.9845112922      -23.2862363765       28.0025258414  W2        10611           0.0000000000
     29904      9968  TIP3      H2             21.0779012922      -24.0521663765       27.0626958414  W2        10611           0.0000000000
     29905      9969  TIP3      OH2            36.4648112922      -30.2744963765       27.4312258414  W2        10616           0.0000000000
     29906      9969  TIP3      H1             36.5612512922      -29.6077963765       26.7511958414  W2        10616           0.0000000000
     29907      9969  TIP3      H2             36.3247712922      -31.0898663765       26.9497758414  W2        10616           0.0000000000
     29908      9970  TIP3      OH2            35.7121912922      -32.8665163765       26.5487758414  W2        10620           0.0000000000
     29909      9970  TIP3      H1             36.3227712922      -33.2378363765       27.1855958414  W2        10620           0.0000000000
     29910      9970  TIP3      H2             34.8753412922      -33.2878263765       26.7447758414  W2        10620           0.0000000000
     29911      9971  TIP3      OH2            21.3821912922      -35.9333963765       29.1967258414  W2        10646           0.0000000000
     29912      9971  TIP3      H1             21.8212612922      -35.3223463765       28.6050758414  W2        10646           0.0000000000
     29913      9971  TIP3      H2             20.7484312922      -35.3949863765       29.6707258414  W2        10646           0.0000000000
     29914      9972  TIP3      OH2            23.2431012922      -34.0172463765       27.6391358414  W2        10651           0.0000000000
     29915      9972  TIP3      H1             23.7344412922      -34.6470063765       27.1116858414  W2        10651           0.0000000000
     29916      9972  TIP3      H2             23.8667312922      -33.7213063765       28.3022558414  W2        10651           0.0000000000
     29917      9973  TIP3      OH2            30.1474912922      -18.7756863765       28.4918558414  W2        10653           0.0000000000
     29918      9973  TIP3      H1             31.0135112922      -18.4089463765       28.3136758414  W2        10653           0.0000000000
     29919      9973  TIP3      H2             29.9007712922      -19.2148863765       27.6779358414  W2        10653           0.0000000000
     29920      9974  TIP3      OH2            23.1012612922      -19.0650963765       27.1194458414  W2        10656           0.0000000000
     29921      9974  TIP3      H1             22.8337212922      -18.7788063765       27.9927558414  W2        10656           0.0000000000
     29922      9974  TIP3      H2             23.8725212922      -19.6111763765       27.2716958414  W2        10656           0.0000000000
     29923      9975  TIP3      OH2           -26.1687187078      -10.0175463765       27.8423958414  W2        10689           0.0000000000
     29924      9975  TIP3      H1            -25.4677287078       -9.9948563765       28.4937958414  W2        10689           0.0000000000
     29925      9975  TIP3      H2            -25.8664287078      -10.6455763765       27.1863258414  W2        10689           0.0000000000
     29926      9976  TIP3      OH2           -23.9459187078       -9.1033563765       29.4406058414  W2        10698           0.0000000000
     29927      9976  TIP3      H1            -23.3663687078       -8.9533263765       30.1874958414  W2        10698           0.0000000000
     29928      9976  TIP3      H2            -23.5319187078       -8.6326163765       28.7172458414  W2        10698           0.0000000000
     29929      9977  TIP3      OH2           -20.2470787078      -17.3533163765       29.2535758414  W2        10702           0.0000000000
     29930      9977  TIP3      H1            -21.1470087078      -17.2144163765       29.5486358414  W2        10702           0.0000000000
     29931      9977  TIP3      H2            -19.9952387078      -16.5218563765       28.8517458414  W2        10702           0.0000000000
     29932      9978  TIP3      OH2           -19.0579387078       -2.9870763765       27.6299658414  W2        10704           0.0000000000
     29933      9978  TIP3      H1            -18.9845887078       -2.0480563765       27.8004958414  W2        10704           0.0000000000
     29934      9978  TIP3      H2            -18.1524287078       -3.2922163765       27.5736958414  W2        10704           0.0000000000
     29935      9979  TIP3      OH2           -23.6455187078       -0.2560163765       28.2930758414  W2        10711           0.0000000000
     29936      9979  TIP3      H1            -23.2706787078       -1.0004063765       27.8223358414  W2        10711           0.0000000000
     29937      9979  TIP3      H2            -23.6411487078       -0.5259563765       29.2114058414  W2        10711           0.0000000000
     29938      9980  TIP3      OH2           -22.4686087078       -8.0705263765       27.0703958414  W2        10718           0.0000000000
     29939      9980  TIP3      H1            -22.4265287078       -8.2931363765       26.1403958414  W2        10718           0.0000000000
     29940      9980  TIP3      H2            -21.6193987078       -7.6718163765       27.2603858414  W2        10718           0.0000000000
     29941      9981  TIP3      OH2           -26.8958587078      -14.1947063765       27.7407258414  W2        10719           0.0000000000
     29942      9981  TIP3      H1            -27.1493787078      -14.1755463765       28.6635358414  W2        10719           0.0000000000
     29943      9981  TIP3      H2            -27.1526487078      -15.0661663765       27.4393458414  W2        10719           0.0000000000
     29944      9982  TIP3      OH2           -30.0135687078      -13.7490563765       26.8417658414  W2        10726           0.0000000000
     29945      9982  TIP3      H1            -30.4444987078      -14.1940463765       27.5715058414  W2        10726           0.0000000000
     29946      9982  TIP3      H2            -30.7316987078      -13.3774263765       26.3295158414  W2        10726           0.0000000000
     29947      9983  TIP3      OH2           -35.4970187078      -13.2609063765       29.3176758414  W2        10728           0.0000000000
     29948      9983  TIP3      H1            -35.0228487078      -12.6699163765       28.7327658414  W2        10728           0.0000000000
     29949      9983  TIP3      H2            -36.2143787078      -12.7306163765       29.6646858414  W2        10728           0.0000000000
     29950      9984  TIP3      OH2           -31.3953787078      -10.9717663765       28.2242058414  W2        10734           0.0000000000
     29951      9984  TIP3      H1            -31.9378687078      -11.3513863765       27.5329658414  W2        10734           0.0000000000
     29952      9984  TIP3      H2            -30.5618887078      -10.7772963765       27.7956158414  W2        10734           0.0000000000
     29953      9985  TIP3      OH2           -24.1624187078      -13.5922063765       28.3592758414  W2        10742           0.0000000000
     29954      9985  TIP3      H1            -25.1009987078      -13.4806463765       28.2081558414  W2        10742           0.0000000000
     29955      9985  TIP3      H2            -23.8652087078      -12.7355163765       28.6658458414  W2        10742           0.0000000000
     29956      9986  TIP3      OH2           -25.9346887078       -4.9477663765       29.1854758414  W2        10746           0.0000000000
     29957      9986  TIP3      H1            -26.2298487078       -4.1209763765       29.5669558414  W2        10746           0.0000000000
     29958      9986  TIP3      H2            -26.6376887078       -5.5670763765       29.3816158414  W2        10746           0.0000000000
     29959      9987  TIP3      OH2           -18.5591987078      -11.5155263765       29.7146858414  W2        10750           0.0000000000
     29960      9987  TIP3      H1            -19.1135687078      -11.9117263765       29.0424358414  W2        10750           0.0000000000
     29961      9987  TIP3      H2            -18.4588387078      -10.6050063765       29.4370158414  W2        10750           0.0000000000
     29962      9988  TIP3      OH2           -34.8055587078       -8.7309663765       27.9211958414  W2        10755           0.0000000000
     29963      9988  TIP3      H1            -34.1895687078       -8.1042463765       28.3006758414  W2        10755           0.0000000000
     29964      9988  TIP3      H2            -35.6672987078       -8.4149863765       28.1928458414  W2        10755           0.0000000000
     29965      9989  TIP3      OH2           -22.8714687078       -4.7529063765       27.9999558414  W2        10760           0.0000000000
     29966      9989  TIP3      H1            -22.5181587078       -5.1329263765       28.8043058414  W2        10760           0.0000000000
     29967      9989  TIP3      H2            -23.8201187078       -4.8464263765       28.0868858414  W2        10760           0.0000000000
     29968      9990  TIP3      OH2           -18.3680287078       -0.2736563765       28.2009758414  W2        10762           0.0000000000
     29969      9990  TIP3      H1            -17.6242387078        0.3123936235       28.0611358414  W2        10762           0.0000000000
     29970      9990  TIP3      H2            -19.0622187078        0.2949236235       28.5342158414  W2        10762           0.0000000000
     29971      9991  TIP3      OH2           -28.7806887078       -3.6412963765       26.4469558414  W2        10766           0.0000000000
     29972      9991  TIP3      H1            -28.5417087078       -4.3894863765       25.8998458414  W2        10766           0.0000000000
     29973      9991  TIP3      H2            -29.0495587078       -4.0291263765       27.2797358414  W2        10766           0.0000000000
     29974      9992  TIP3      OH2           -29.8436287078       -4.0709163765       28.9032158414  W2        10767           0.0000000000
     29975      9992  TIP3      H1            -29.6968287078       -4.5909363765       29.6933058414  W2        10767           0.0000000000
     29976      9992  TIP3      H2            -29.8464587078       -3.1641563765       29.2098058414  W2        10767           0.0000000000
     29977      9993  TIP3      OH2           -33.3905187078       -6.8185863765       29.4137558414  W2        10768           0.0000000000
     29978      9993  TIP3      H1            -34.0765887078       -6.4663363765       29.9807258414  W2        10768           0.0000000000
     29979      9993  TIP3      H2            -32.8677287078       -6.0556263765       29.1671858414  W2        10768           0.0000000000
     29980      9994  TIP3      OH2           -27.1059087078       -2.3735563765       29.6526358414  W2        10771           0.0000000000
     29981      9994  TIP3      H1            -27.9222987078       -1.8765863765       29.7050658414  W2        10771           0.0000000000
     29982      9994  TIP3      H2            -26.5762787078       -1.8982063765       29.0125158414  W2        10771           0.0000000000
     29983      9995  TIP3      OH2           -29.7675987078       -1.3298363765       29.6343258414  W2        10775           0.0000000000
     29984      9995  TIP3      H1            -29.6067287078       -0.5300863765       29.1335858414  W2        10775           0.0000000000
     29985      9995  TIP3      H2            -29.9648187078       -1.0232363765       30.5193858414  W2        10775           0.0000000000
     29986      9996  TIP3      OH2           -31.0331587078      -14.6319163765       29.2500858414  W2        10776           0.0000000000
     29987      9996  TIP3      H1            -31.1166787078      -13.7436063765       29.5967258414  W2        10776           0.0000000000
     29988      9996  TIP3      H2            -30.1431287078      -14.8972463765       29.4817658414  W2        10776           0.0000000000
     29989      9997  TIP3      OH2           -32.7746287078       -4.2046963765       28.3105358414  W2        10779           0.0000000000
     29990      9997  TIP3      H1            -32.1824787078       -3.5052163765       28.5867758414  W2        10779           0.0000000000
     29991      9997  TIP3      H2            -32.3153287078       -4.6377463765       27.5909958414  W2        10779           0.0000000000
     29992      9998  TIP3      OH2           -34.4587087078      -11.5403963765       27.4264758414  W2        10780           0.0000000000
     29993      9998  TIP3      H1            -34.5034487078      -10.6010863765       27.6051758414  W2        10780           0.0000000000
     29994      9998  TIP3      H2            -35.3463887078      -11.7759063765       27.1566858414  W2        10780           0.0000000000
     29995      9999  TIP3      OH2           -26.7425087078       -1.7781563765       26.5855558414  W2        10786           0.0000000000
     29996      9999  TIP3      H1            -27.3864087078       -2.4092963765       26.9069258414  W2        10786           0.0000000000
     29997      9999  TIP3      H2            -25.9806787078       -2.3093563765       26.3539058414  W2        10786           0.0000000000
     29998     10000  TIP3      OH2           -22.1382187078       -1.9611663765       26.8193558414  W2        10788           0.0000000000
     29999     10000  TIP3      H1            -21.8551787078       -2.7556463765       27.2720458414  W2        10788           0.0000000000
     30000     10000  TIP3      H2            -21.3984287078       -1.7280663765       26.2584658414  W2        10788           0.0000000000
     30001     10001  TIP3      OH2           -31.1834887078       -6.0516763765       26.6768458414  W2        10790           0.0000000000
     30002     10001  TIP3      H1            -31.1190787078       -6.8457163765       27.2074858414  W2        10790           0.0000000000
     30003     10001  TIP3      H2            -30.5305687078       -6.1703963765       25.9870458414  W2        10790           0.0000000000
     30004     10002  TIP3      OH2           -25.8311487078       -5.0045063765       26.4126458414  W2        10792           0.0000000000
     30005     10002  TIP3      H1            -26.0997387078       -4.8242963765       27.3135358414  W2        10792           0.0000000000
     30006     10002  TIP3      H2            -26.0375887078       -5.9298863765       26.2812258414  W2        10792           0.0000000000
     30007     10003  TIP3      OH2           -30.0341087078       -8.0790563765       28.9826458414  W2        10795           0.0000000000
     30008     10003  TIP3      H1            -30.4939087078       -8.5632263765       29.6684958414  W2        10795           0.0000000000
     30009     10003  TIP3      H2            -29.7792387078       -8.7475163765       28.3466958414  W2        10795           0.0000000000
     30010     10004  TIP3      OH2           -28.9630687078       -9.8358763765       27.2449658414  W2        10797           0.0000000000
     30011     10004  TIP3      H1            -29.1435687078       -9.9907563765       26.3177958414  W2        10797           0.0000000000
     30012     10004  TIP3      H2            -28.0130187078       -9.7280063765       27.2897558414  W2        10797           0.0000000000
     30013     10005  TIP3      OH2           -19.5732387078       -7.4814563765       26.6907758414  W2        10799           0.0000000000
     30014     10005  TIP3      H1            -19.8467587078       -7.9059063765       25.8776058414  W2        10799           0.0000000000
     30015     10005  TIP3      H2            -19.5338287078       -6.5500063765       26.4738158414  W2        10799           0.0000000000
     30016     10006  TIP3      OH2           -29.0658987078        0.8544936235       28.2463258414  W2        10813           0.0000000000
     30017     10006  TIP3      H1            -28.1328287078        1.0123636235       28.3901658414  W2        10813           0.0000000000
     30018     10006  TIP3      H2            -29.3300187078        1.5297936235       27.6214758414  W2        10813           0.0000000000
     30019     10007  TIP3      OH2           -35.4974087078       -4.5091263765       27.7291358414  W2        10814           0.0000000000
     30020     10007  TIP3      H1            -34.5834887078       -4.4302363765       28.0025258414  W2        10814           0.0000000000
     30021     10007  TIP3      H2            -35.4900987078       -5.1961663765       27.0626958414  W2        10814           0.0000000000
     30022     10008  TIP3      OH2           -18.4520887078       -8.6580563765       28.8805158414  W2        10824           0.0000000000
     30023     10008  TIP3      H1            -18.9739787078       -8.3016463765       28.1616058414  W2        10824           0.0000000000
     30024     10008  TIP3      H2            -18.4851687078       -7.9832763765       29.5586058414  W2        10824           0.0000000000
     30025     10009  TIP3      OH2           -20.1031887078      -11.4184963765       27.4312258414  W2        10825           0.0000000000
     30026     10009  TIP3      H1            -20.0067487078      -10.7517963765       26.7511958414  W2        10825           0.0000000000
     30027     10009  TIP3      H2            -20.2432287078      -12.2338663765       26.9497758414  W2        10825           0.0000000000
     30028     10010  TIP3      OH2           -20.8558087078      -14.0105163765       26.5487758414  W2        10830           0.0000000000
     30029     10010  TIP3      H1            -20.2452287078      -14.3818363765       27.1855958414  W2        10830           0.0000000000
     30030     10010  TIP3      H2            -21.6926587078      -14.4318263765       26.7447758414  W2        10830           0.0000000000
     30031     10011  TIP3      OH2           -18.7431387078      -15.1249363765       28.0909958414  W2        10840           0.0000000000
     30032     10011  TIP3      H1            -18.3308787078      -15.8463663765       27.6157958414  W2        10840           0.0000000000
     30033     10011  TIP3      H2            -18.0614887078      -14.4554763765       28.1494258414  W2        10840           0.0000000000
     30034     10012  TIP3      OH2           -35.1858087078      -17.0773963765       29.1967258414  W2        10861           0.0000000000
     30035     10012  TIP3      H1            -34.7467387078      -16.4663463765       28.6050758414  W2        10861           0.0000000000
     30036     10012  TIP3      H2            -35.8195687078      -16.5389863765       29.6707258414  W2        10861           0.0000000000
     30037     10013  TIP3      OH2           -33.3248987078      -15.1612463765       27.6391358414  W2        10866           0.0000000000
     30038     10013  TIP3      H1            -32.8335587078      -15.7910063765       27.1116858414  W2        10866           0.0000000000
     30039     10013  TIP3      H2            -32.7012687078      -14.8653063765       28.3022558414  W2        10866           0.0000000000
     30040     10014  TIP3      OH2           -26.4205087078        0.0803136235       28.4918558414  W2        10868           0.0000000000
     30041     10014  TIP3      H1            -25.5544887078        0.4470536235       28.3136758414  W2        10868           0.0000000000
     30042     10014  TIP3      H2            -26.6672287078       -0.3588863765       27.6779358414  W2        10868           0.0000000000
     30043     10015  TIP3      OH2           -33.4667387078       -0.2090963765       27.1194458414  W2        10872           0.0000000000
     30044     10015  TIP3      H1            -33.7342787078        0.0771936235       27.9927558414  W2        10872           0.0000000000
     30045     10015  TIP3      H2            -32.6954787078       -0.7551763765       27.2716958414  W2        10872           0.0000000000
     30046     10016  TIP3      OH2            -7.3127187078      -10.0175463765       27.8423958414  W2        10905           0.0000000000
     30047     10016  TIP3      H1             -6.6117287078       -9.9948563765       28.4937958414  W2        10905           0.0000000000
     30048     10016  TIP3      H2             -7.0104287078      -10.6455763765       27.1863258414  W2        10905           0.0000000000
     30049     10017  TIP3      OH2            -5.0899187078       -9.1033563765       29.4406058414  W2        10914           0.0000000000
     30050     10017  TIP3      H1             -4.5103687078       -8.9533263765       30.1874958414  W2        10914           0.0000000000
     30051     10017  TIP3      H2             -4.6759187078       -8.6326163765       28.7172458414  W2        10914           0.0000000000
     30052     10018  TIP3      OH2            -1.3910787078      -17.3533163765       29.2535758414  W2        10918           0.0000000000
     30053     10018  TIP3      H1             -2.2910087078      -17.2144163765       29.5486358414  W2        10918           0.0000000000
     30054     10018  TIP3      H2             -1.1392387078      -16.5218563765       28.8517458414  W2        10918           0.0000000000
     30055     10019  TIP3      OH2            -0.2019387078       -2.9870763765       27.6299658414  W2        10920           0.0000000000
     30056     10019  TIP3      H1             -0.1285887078       -2.0480563765       27.8004958414  W2        10920           0.0000000000
     30057     10019  TIP3      H2              0.7035712922       -3.2922163765       27.5736958414  W2        10920           0.0000000000
     30058     10020  TIP3      OH2            -4.7895187078       -0.2560163765       28.2930758414  W2        10927           0.0000000000
     30059     10020  TIP3      H1             -4.4146787078       -1.0004063765       27.8223358414  W2        10927           0.0000000000
     30060     10020  TIP3      H2             -4.7851487078       -0.5259563765       29.2114058414  W2        10927           0.0000000000
     30061     10021  TIP3      OH2            -3.6126087078       -8.0705263765       27.0703958414  W2        10934           0.0000000000
     30062     10021  TIP3      H1             -3.5705287078       -8.2931363765       26.1403958414  W2        10934           0.0000000000
     30063     10021  TIP3      H2             -2.7633987078       -7.6718163765       27.2603858414  W2        10934           0.0000000000
     30064     10022  TIP3      OH2            -8.0398587078      -14.1947063765       27.7407258414  W2        10935           0.0000000000
     30065     10022  TIP3      H1             -8.2933787078      -14.1755463765       28.6635358414  W2        10935           0.0000000000
     30066     10022  TIP3      H2             -8.2966487078      -15.0661663765       27.4393458414  W2        10935           0.0000000000
     30067     10023  TIP3      OH2           -11.1575687078      -13.7490563765       26.8417658414  W2        10942           0.0000000000
     30068     10023  TIP3      H1            -11.5884987078      -14.1940463765       27.5715058414  W2        10942           0.0000000000
     30069     10023  TIP3      H2            -11.8756987078      -13.3774263765       26.3295158414  W2        10942           0.0000000000
     30070     10024  TIP3      OH2           -16.6410187078      -13.2609063765       29.3176758414  W2        10944           0.0000000000
     30071     10024  TIP3      H1            -16.1668487078      -12.6699163765       28.7327658414  W2        10944           0.0000000000
     30072     10024  TIP3      H2            -17.3583787078      -12.7306163765       29.6646858414  W2        10944           0.0000000000
     30073     10025  TIP3      OH2           -12.5393787078      -10.9717663765       28.2242058414  W2        10950           0.0000000000
     30074     10025  TIP3      H1            -13.0818687078      -11.3513863765       27.5329658414  W2        10950           0.0000000000
     30075     10025  TIP3      H2            -11.7058887078      -10.7772963765       27.7956158414  W2        10950           0.0000000000
     30076     10026  TIP3      OH2            -5.3064187078      -13.5922063765       28.3592758414  W2        10958           0.0000000000
     30077     10026  TIP3      H1             -6.2449987078      -13.4806463765       28.2081558414  W2        10958           0.0000000000
     30078     10026  TIP3      H2             -5.0092087078      -12.7355163765       28.6658458414  W2        10958           0.0000000000
     30079     10027  TIP3      OH2            -7.0786887078       -4.9477663765       29.1854758414  W2        10962           0.0000000000
     30080     10027  TIP3      H1             -7.3738487078       -4.1209763765       29.5669558414  W2        10962           0.0000000000
     30081     10027  TIP3      H2             -7.7816887078       -5.5670763765       29.3816158414  W2        10962           0.0000000000
     30082     10028  TIP3      OH2             0.2968012922      -11.5155263765       29.7146858414  W2        10966           0.0000000000
     30083     10028  TIP3      H1             -0.2575687078      -11.9117263765       29.0424358414  W2        10966           0.0000000000
     30084     10028  TIP3      H2              0.3971612922      -10.6050063765       29.4370158414  W2        10966           0.0000000000
     30085     10029  TIP3      OH2           -15.9495587078       -8.7309663765       27.9211958414  W2        10971           0.0000000000
     30086     10029  TIP3      H1            -15.3335687078       -8.1042463765       28.3006758414  W2        10971           0.0000000000
     30087     10029  TIP3      H2            -16.8112987078       -8.4149863765       28.1928458414  W2        10971           0.0000000000
     30088     10030  TIP3      OH2            -4.0154687078       -4.7529063765       27.9999558414  W2        10976           0.0000000000
     30089     10030  TIP3      H1             -3.6621587078       -5.1329263765       28.8043058414  W2        10976           0.0000000000
     30090     10030  TIP3      H2             -4.9641187078       -4.8464263765       28.0868858414  W2        10976           0.0000000000
     30091     10031  TIP3      OH2             0.4879712922       -0.2736563765       28.2009758414  W2        10978           0.0000000000
     30092     10031  TIP3      H1              1.2317612922        0.3123936235       28.0611358414  W2        10978           0.0000000000
     30093     10031  TIP3      H2             -0.2062187078        0.2949236235       28.5342158414  W2        10978           0.0000000000
     30094     10032  TIP3      OH2            -9.9246887078       -3.6412963765       26.4469558414  W2        10982           0.0000000000
     30095     10032  TIP3      H1             -9.6857087078       -4.3894863765       25.8998458414  W2        10982           0.0000000000
     30096     10032  TIP3      H2            -10.1935587078       -4.0291263765       27.2797358414  W2        10982           0.0000000000
     30097     10033  TIP3      OH2           -10.9876287078       -4.0709163765       28.9032158414  W2        10983           0.0000000000
     30098     10033  TIP3      H1            -10.8408287078       -4.5909363765       29.6933058414  W2        10983           0.0000000000
     30099     10033  TIP3      H2            -10.9904587078       -3.1641563765       29.2098058414  W2        10983           0.0000000000
     30100     10034  TIP3      OH2           -14.5345187078       -6.8185863765       29.4137558414  W2        10984           0.0000000000
     30101     10034  TIP3      H1            -15.2205887078       -6.4663363765       29.9807258414  W2        10984           0.0000000000
     30102     10034  TIP3      H2            -14.0117287078       -6.0556263765       29.1671858414  W2        10984           0.0000000000
     30103     10035  TIP3      OH2            -8.2499087078       -2.3735563765       29.6526358414  W2        10987           0.0000000000
     30104     10035  TIP3      H1             -9.0662987078       -1.8765863765       29.7050658414  W2        10987           0.0000000000
     30105     10035  TIP3      H2             -7.7202787078       -1.8982063765       29.0125158414  W2        10987           0.0000000000
     30106     10036  TIP3      OH2           -10.9115987078       -1.3298363765       29.6343258414  W2        10991           0.0000000000
     30107     10036  TIP3      H1            -10.7507287078       -0.5300863765       29.1335858414  W2        10991           0.0000000000
     30108     10036  TIP3      H2            -11.1088187078       -1.0232363765       30.5193858414  W2        10991           0.0000000000
     30109     10037  TIP3      OH2           -12.1771587078      -14.6319163765       29.2500858414  W2        10992           0.0000000000
     30110     10037  TIP3      H1            -12.2606787078      -13.7436063765       29.5967258414  W2        10992           0.0000000000
     30111     10037  TIP3      H2            -11.2871287078      -14.8972463765       29.4817658414  W2        10992           0.0000000000
     30112     10038  TIP3      OH2           -13.9186287078       -4.2046963765       28.3105358414  W2        10995           0.0000000000
     30113     10038  TIP3      H1            -13.3264787078       -3.5052163765       28.5867758414  W2        10995           0.0000000000
     30114     10038  TIP3      H2            -13.4593287078       -4.6377463765       27.5909958414  W2        10995           0.0000000000
     30115     10039  TIP3      OH2           -15.6027087078      -11.5403963765       27.4264758414  W2        10996           0.0000000000
     30116     10039  TIP3      H1            -15.6474487078      -10.6010863765       27.6051758414  W2        10996           0.0000000000
     30117     10039  TIP3      H2            -16.4903887078      -11.7759063765       27.1566858414  W2        10996           0.0000000000
     30118     10040  TIP3      OH2            -7.8865087078       -1.7781563765       26.5855558414  W2        11002           0.0000000000
     30119     10040  TIP3      H1             -8.5304087078       -2.4092963765       26.9069258414  W2        11002           0.0000000000
     30120     10040  TIP3      H2             -7.1246787078       -2.3093563765       26.3539058414  W2        11002           0.0000000000
     30121     10041  TIP3      OH2            -3.2822187078       -1.9611663765       26.8193558414  W2        11004           0.0000000000
     30122     10041  TIP3      H1             -2.9991787078       -2.7556463765       27.2720458414  W2        11004           0.0000000000
     30123     10041  TIP3      H2             -2.5424287078       -1.7280663765       26.2584658414  W2        11004           0.0000000000
     30124     10042  TIP3      OH2           -12.3274887078       -6.0516763765       26.6768458414  W2        11006           0.0000000000
     30125     10042  TIP3      H1            -12.2630787078       -6.8457163765       27.2074858414  W2        11006           0.0000000000
     30126     10042  TIP3      H2            -11.6745687078       -6.1703963765       25.9870458414  W2        11006           0.0000000000
     30127     10043  TIP3      OH2            -6.9751487078       -5.0045063765       26.4126458414  W2        11008           0.0000000000
     30128     10043  TIP3      H1             -7.2437387078       -4.8242963765       27.3135358414  W2        11008           0.0000000000
     30129     10043  TIP3      H2             -7.1815887078       -5.9298863765       26.2812258414  W2        11008           0.0000000000
     30130     10044  TIP3      OH2           -11.1781087078       -8.0790563765       28.9826458414  W2        11011           0.0000000000
     30131     10044  TIP3      H1            -11.6379087078       -8.5632263765       29.6684958414  W2        11011           0.0000000000
     30132     10044  TIP3      H2            -10.9232387078       -8.7475163765       28.3466958414  W2        11011           0.0000000000
     30133     10045  TIP3      OH2           -10.1070687078       -9.8358763765       27.2449658414  W2        11013           0.0000000000
     30134     10045  TIP3      H1            -10.2875687078       -9.9907563765       26.3177958414  W2        11013           0.0000000000
     30135     10045  TIP3      H2             -9.1570187078       -9.7280063765       27.2897558414  W2        11013           0.0000000000
     30136     10046  TIP3      OH2            -0.7172387078       -7.4814563765       26.6907758414  W2        11015           0.0000000000
     30137     10046  TIP3      H1             -0.9907587078       -7.9059063765       25.8776058414  W2        11015           0.0000000000
     30138     10046  TIP3      H2             -0.6778287078       -6.5500063765       26.4738158414  W2        11015           0.0000000000
     30139     10047  TIP3      OH2           -10.2098987078        0.8544936235       28.2463258414  W2        11029           0.0000000000
     30140     10047  TIP3      H1             -9.2768287078        1.0123636235       28.3901658414  W2        11029           0.0000000000
     30141     10047  TIP3      H2            -10.4740187078        1.5297936235       27.6214758414  W2        11029           0.0000000000
     30142     10048  TIP3      OH2           -16.6414087078       -4.5091263765       27.7291358414  W2        11030           0.0000000000
     30143     10048  TIP3      H1            -15.7274887078       -4.4302363765       28.0025258414  W2        11030           0.0000000000
     30144     10048  TIP3      H2            -16.6340987078       -5.1961663765       27.0626958414  W2        11030           0.0000000000
     30145     10049  TIP3      OH2             0.4039112922       -8.6580563765       28.8805158414  W2        11040           0.0000000000
     30146     10049  TIP3      H1             -0.1179787078       -8.3016463765       28.1616058414  W2        11040           0.0000000000
     30147     10049  TIP3      H2              0.3708312922       -7.9832763765       29.5586058414  W2        11040           0.0000000000
     30148     10050  TIP3      OH2            -1.2471887078      -11.4184963765       27.4312258414  W2        11041           0.0000000000
     30149     10050  TIP3      H1             -1.1507487078      -10.7517963765       26.7511958414  W2        11041           0.0000000000
     30150     10050  TIP3      H2             -1.3872287078      -12.2338663765       26.9497758414  W2        11041           0.0000000000
     30151     10051  TIP3      OH2            -1.9998087078      -14.0105163765       26.5487758414  W2        11046           0.0000000000
     30152     10051  TIP3      H1             -1.3892287078      -14.3818363765       27.1855958414  W2        11046           0.0000000000
     30153     10051  TIP3      H2             -2.8366587078      -14.4318263765       26.7447758414  W2        11046           0.0000000000
     30154     10052  TIP3      OH2             0.1128612922      -15.1249363765       28.0909958414  W2        11056           0.0000000000
     30155     10052  TIP3      H1              0.5251212922      -15.8463663765       27.6157958414  W2        11056           0.0000000000
     30156     10052  TIP3      H2              0.7945112922      -14.4554763765       28.1494258414  W2        11056           0.0000000000
     30157     10053  TIP3      OH2           -16.3298087078      -17.0773963765       29.1967258414  W2        11077           0.0000000000
     30158     10053  TIP3      H1            -15.8907387078      -16.4663463765       28.6050758414  W2        11077           0.0000000000
     30159     10053  TIP3      H2            -16.9635687078      -16.5389863765       29.6707258414  W2        11077           0.0000000000
     30160     10054  TIP3      OH2           -14.4688987078      -15.1612463765       27.6391358414  W2        11082           0.0000000000
     30161     10054  TIP3      H1            -13.9775587078      -15.7910063765       27.1116858414  W2        11082           0.0000000000
     30162     10054  TIP3      H2            -13.8452687078      -14.8653063765       28.3022558414  W2        11082           0.0000000000
     30163     10055  TIP3      OH2            -7.5645087078        0.0803136235       28.4918558414  W2        11084           0.0000000000
     30164     10055  TIP3      H1             -6.6984887078        0.4470536235       28.3136758414  W2        11084           0.0000000000
     30165     10055  TIP3      H2             -7.8112287078       -0.3588863765       27.6779358414  W2        11084           0.0000000000
     30166     10056  TIP3      OH2           -14.6107387078       -0.2090963765       27.1194458414  W2        11088           0.0000000000
     30167     10056  TIP3      H1            -14.8782787078        0.0771936235       27.9927558414  W2        11088           0.0000000000
     30168     10056  TIP3      H2            -13.8394787078       -0.7551763765       27.2716958414  W2        11088           0.0000000000
     30169     10057  TIP3      OH2            11.5432812922      -10.0175463765       27.8423958414  W2        11121           0.0000000000
     30170     10057  TIP3      H1             12.2442712922       -9.9948563765       28.4937958414  W2        11121           0.0000000000
     30171     10057  TIP3      H2             11.8455712922      -10.6455763765       27.1863258414  W2        11121           0.0000000000
     30172     10058  TIP3      OH2            13.7660812922       -9.1033563765       29.4406058414  W2        11130           0.0000000000
     30173     10058  TIP3      H1             14.3456312922       -8.9533263765       30.1874958414  W2        11130           0.0000000000
     30174     10058  TIP3      H2             14.1800812922       -8.6326163765       28.7172458414  W2        11130           0.0000000000
     30175     10059  TIP3      OH2            17.4649212922      -17.3533163765       29.2535758414  W2        11134           0.0000000000
     30176     10059  TIP3      H1             16.5649912922      -17.2144163765       29.5486358414  W2        11134           0.0000000000
     30177     10059  TIP3      H2             17.7167612922      -16.5218563765       28.8517458414  W2        11134           0.0000000000
     30178     10060  TIP3      OH2            18.6540612922       -2.9870763765       27.6299658414  W2        11136           0.0000000000
     30179     10060  TIP3      H1             18.7274112922       -2.0480563765       27.8004958414  W2        11136           0.0000000000
     30180     10060  TIP3      H2             19.5595712922       -3.2922163765       27.5736958414  W2        11136           0.0000000000
     30181     10061  TIP3      OH2            14.0664812922       -0.2560163765       28.2930758414  W2        11143           0.0000000000
     30182     10061  TIP3      H1             14.4413212922       -1.0004063765       27.8223358414  W2        11143           0.0000000000
     30183     10061  TIP3      H2             14.0708512922       -0.5259563765       29.2114058414  W2        11143           0.0000000000
     30184     10062  TIP3      OH2            15.2433912922       -8.0705263765       27.0703958414  W2        11150           0.0000000000
     30185     10062  TIP3      H1             15.2854712922       -8.2931363765       26.1403958414  W2        11150           0.0000000000
     30186     10062  TIP3      H2             16.0926012922       -7.6718163765       27.2603858414  W2        11150           0.0000000000
     30187     10063  TIP3      OH2            10.8161412922      -14.1947063765       27.7407258414  W2        11151           0.0000000000
     30188     10063  TIP3      H1             10.5626212922      -14.1755463765       28.6635358414  W2        11151           0.0000000000
     30189     10063  TIP3      H2             10.5593512922      -15.0661663765       27.4393458414  W2        11151           0.0000000000
     30190     10064  TIP3      OH2             7.6984312922      -13.7490563765       26.8417658414  W2        11158           0.0000000000
     30191     10064  TIP3      H1              7.2675012922      -14.1940463765       27.5715058414  W2        11158           0.0000000000
     30192     10064  TIP3      H2              6.9803012922      -13.3774263765       26.3295158414  W2        11158           0.0000000000
     30193     10065  TIP3      OH2             2.2149812922      -13.2609063765       29.3176758414  W2        11160           0.0000000000
     30194     10065  TIP3      H1              2.6891512922      -12.6699163765       28.7327658414  W2        11160           0.0000000000
     30195     10065  TIP3      H2              1.4976212922      -12.7306163765       29.6646858414  W2        11160           0.0000000000
     30196     10066  TIP3      OH2             6.3166212922      -10.9717663765       28.2242058414  W2        11166           0.0000000000
     30197     10066  TIP3      H1              5.7741312922      -11.3513863765       27.5329658414  W2        11166           0.0000000000
     30198     10066  TIP3      H2              7.1501112922      -10.7772963765       27.7956158414  W2        11166           0.0000000000
     30199     10067  TIP3      OH2            13.5495812922      -13.5922063765       28.3592758414  W2        11174           0.0000000000
     30200     10067  TIP3      H1             12.6110012922      -13.4806463765       28.2081558414  W2        11174           0.0000000000
     30201     10067  TIP3      H2             13.8467912922      -12.7355163765       28.6658458414  W2        11174           0.0000000000
     30202     10068  TIP3      OH2            11.7773112922       -4.9477663765       29.1854758414  W2        11178           0.0000000000
     30203     10068  TIP3      H1             11.4821512922       -4.1209763765       29.5669558414  W2        11178           0.0000000000
     30204     10068  TIP3      H2             11.0743112922       -5.5670763765       29.3816158414  W2        11178           0.0000000000
     30205     10069  TIP3      OH2            19.1528012922      -11.5155263765       29.7146858414  W2        11182           0.0000000000
     30206     10069  TIP3      H1             18.5984312922      -11.9117263765       29.0424358414  W2        11182           0.0000000000
     30207     10069  TIP3      H2             19.2531612922      -10.6050063765       29.4370158414  W2        11182           0.0000000000
     30208     10070  TIP3      OH2             2.9064412922       -8.7309663765       27.9211958414  W2        11187           0.0000000000
     30209     10070  TIP3      H1              3.5224312922       -8.1042463765       28.3006758414  W2        11187           0.0000000000
     30210     10070  TIP3      H2              2.0447012922       -8.4149863765       28.1928458414  W2        11187           0.0000000000
     30211     10071  TIP3      OH2            14.8405312922       -4.7529063765       27.9999558414  W2        11192           0.0000000000
     30212     10071  TIP3      H1             15.1938412922       -5.1329263765       28.8043058414  W2        11192           0.0000000000
     30213     10071  TIP3      H2             13.8918812922       -4.8464263765       28.0868858414  W2        11192           0.0000000000
     30214     10072  TIP3      OH2            19.3439712922       -0.2736563765       28.2009758414  W2        11194           0.0000000000
     30215     10072  TIP3      H1             20.0877612922        0.3123936235       28.0611358414  W2        11194           0.0000000000
     30216     10072  TIP3      H2             18.6497812922        0.2949236235       28.5342158414  W2        11194           0.0000000000
     30217     10073  TIP3      OH2             8.9313112922       -3.6412963765       26.4469558414  W2        11198           0.0000000000
     30218     10073  TIP3      H1              9.1702912922       -4.3894863765       25.8998458414  W2        11198           0.0000000000
     30219     10073  TIP3      H2              8.6624412922       -4.0291263765       27.2797358414  W2        11198           0.0000000000
     30220     10074  TIP3      OH2             7.8683712922       -4.0709163765       28.9032158414  W2        11199           0.0000000000
     30221     10074  TIP3      H1              8.0151712922       -4.5909363765       29.6933058414  W2        11199           0.0000000000
     30222     10074  TIP3      H2              7.8655412922       -3.1641563765       29.2098058414  W2        11199           0.0000000000
     30223     10075  TIP3      OH2             4.3214812922       -6.8185863765       29.4137558414  W2        11200           0.0000000000
     30224     10075  TIP3      H1              3.6354112922       -6.4663363765       29.9807258414  W2        11200           0.0000000000
     30225     10075  TIP3      H2              4.8442712922       -6.0556263765       29.1671858414  W2        11200           0.0000000000
     30226     10076  TIP3      OH2            10.6060912922       -2.3735563765       29.6526358414  W2        11203           0.0000000000
     30227     10076  TIP3      H1              9.7897012922       -1.8765863765       29.7050658414  W2        11203           0.0000000000
     30228     10076  TIP3      H2             11.1357212922       -1.8982063765       29.0125158414  W2        11203           0.0000000000
     30229     10077  TIP3      OH2             7.9444012922       -1.3298363765       29.6343258414  W2        11207           0.0000000000
     30230     10077  TIP3      H1              8.1052712922       -0.5300863765       29.1335858414  W2        11207           0.0000000000
     30231     10077  TIP3      H2              7.7471812922       -1.0232363765       30.5193858414  W2        11207           0.0000000000
     30232     10078  TIP3      OH2             6.6788412922      -14.6319163765       29.2500858414  W2        11208           0.0000000000
     30233     10078  TIP3      H1              6.5953212922      -13.7436063765       29.5967258414  W2        11208           0.0000000000
     30234     10078  TIP3      H2              7.5688712922      -14.8972463765       29.4817658414  W2        11208           0.0000000000
     30235     10079  TIP3      OH2             4.9373712922       -4.2046963765       28.3105358414  W2        11211           0.0000000000
     30236     10079  TIP3      H1              5.5295212922       -3.5052163765       28.5867758414  W2        11211           0.0000000000
     30237     10079  TIP3      H2              5.3966712922       -4.6377463765       27.5909958414  W2        11211           0.0000000000
     30238     10080  TIP3      OH2             3.2532912922      -11.5403963765       27.4264758414  W2        11212           0.0000000000
     30239     10080  TIP3      H1              3.2085512922      -10.6010863765       27.6051758414  W2        11212           0.0000000000
     30240     10080  TIP3      H2              2.3656112922      -11.7759063765       27.1566858414  W2        11212           0.0000000000
     30241     10081  TIP3      OH2            10.9694912922       -1.7781563765       26.5855558414  W2        11218           0.0000000000
     30242     10081  TIP3      H1             10.3255912922       -2.4092963765       26.9069258414  W2        11218           0.0000000000
     30243     10081  TIP3      H2             11.7313212922       -2.3093563765       26.3539058414  W2        11218           0.0000000000
     30244     10082  TIP3      OH2            15.5737812922       -1.9611663765       26.8193558414  W2        11220           0.0000000000
     30245     10082  TIP3      H1             15.8568212922       -2.7556463765       27.2720458414  W2        11220           0.0000000000
     30246     10082  TIP3      H2             16.3135712922       -1.7280663765       26.2584658414  W2        11220           0.0000000000
     30247     10083  TIP3      OH2             6.5285112922       -6.0516763765       26.6768458414  W2        11222           0.0000000000
     30248     10083  TIP3      H1              6.5929212922       -6.8457163765       27.2074858414  W2        11222           0.0000000000
     30249     10083  TIP3      H2              7.1814312922       -6.1703963765       25.9870458414  W2        11222           0.0000000000
     30250     10084  TIP3      OH2            11.8808512922       -5.0045063765       26.4126458414  W2        11224           0.0000000000
     30251     10084  TIP3      H1             11.6122612922       -4.8242963765       27.3135358414  W2        11224           0.0000000000
     30252     10084  TIP3      H2             11.6744112922       -5.9298863765       26.2812258414  W2        11224           0.0000000000
     30253     10085  TIP3      OH2             7.6778912922       -8.0790563765       28.9826458414  W2        11227           0.0000000000
     30254     10085  TIP3      H1              7.2180912922       -8.5632263765       29.6684958414  W2        11227           0.0000000000
     30255     10085  TIP3      H2              7.9327612922       -8.7475163765       28.3466958414  W2        11227           0.0000000000
     30256     10086  TIP3      OH2             8.7489312922       -9.8358763765       27.2449658414  W2        11229           0.0000000000
     30257     10086  TIP3      H1              8.5684312922       -9.9907563765       26.3177958414  W2        11229           0.0000000000
     30258     10086  TIP3      H2              9.6989812922       -9.7280063765       27.2897558414  W2        11229           0.0000000000
     30259     10087  TIP3      OH2            18.1387612922       -7.4814563765       26.6907758414  W2        11231           0.0000000000
     30260     10087  TIP3      H1             17.8652412922       -7.9059063765       25.8776058414  W2        11231           0.0000000000
     30261     10087  TIP3      H2             18.1781712922       -6.5500063765       26.4738158414  W2        11231           0.0000000000
     30262     10088  TIP3      OH2             8.6461012922        0.8544936235       28.2463258414  W2        11245           0.0000000000
     30263     10088  TIP3      H1              9.5791712922        1.0123636235       28.3901658414  W2        11245           0.0000000000
     30264     10088  TIP3      H2              8.3819812922        1.5297936235       27.6214758414  W2        11245           0.0000000000
     30265     10089  TIP3      OH2             2.2145912922       -4.5091263765       27.7291358414  W2        11246           0.0000000000
     30266     10089  TIP3      H1              3.1285112922       -4.4302363765       28.0025258414  W2        11246           0.0000000000
     30267     10089  TIP3      H2              2.2219012922       -5.1961663765       27.0626958414  W2        11246           0.0000000000
     30268     10090  TIP3      OH2            19.2599112922       -8.6580563765       28.8805158414  W2        11256           0.0000000000
     30269     10090  TIP3      H1             18.7380212922       -8.3016463765       28.1616058414  W2        11256           0.0000000000
     30270     10090  TIP3      H2             19.2268312922       -7.9832763765       29.5586058414  W2        11256           0.0000000000
     30271     10091  TIP3      OH2            17.6088112922      -11.4184963765       27.4312258414  W2        11257           0.0000000000
     30272     10091  TIP3      H1             17.7052512922      -10.7517963765       26.7511958414  W2        11257           0.0000000000
     30273     10091  TIP3      H2             17.4687712922      -12.2338663765       26.9497758414  W2        11257           0.0000000000
     30274     10092  TIP3      OH2            16.8561912922      -14.0105163765       26.5487758414  W2        11262           0.0000000000
     30275     10092  TIP3      H1             17.4667712922      -14.3818363765       27.1855958414  W2        11262           0.0000000000
     30276     10092  TIP3      H2             16.0193412922      -14.4318263765       26.7447758414  W2        11262           0.0000000000
     30277     10093  TIP3      OH2            18.9688612922      -15.1249363765       28.0909958414  W2        11272           0.0000000000
     30278     10093  TIP3      H1             19.3811212922      -15.8463663765       27.6157958414  W2        11272           0.0000000000
     30279     10093  TIP3      H2             19.6505112922      -14.4554763765       28.1494258414  W2        11272           0.0000000000
     30280     10094  TIP3      OH2             2.5261912922      -17.0773963765       29.1967258414  W2        11293           0.0000000000
     30281     10094  TIP3      H1              2.9652612922      -16.4663463765       28.6050758414  W2        11293           0.0000000000
     30282     10094  TIP3      H2              1.8924312922      -16.5389863765       29.6707258414  W2        11293           0.0000000000
     30283     10095  TIP3      OH2             4.3871012922      -15.1612463765       27.6391358414  W2        11298           0.0000000000
     30284     10095  TIP3      H1              4.8784412922      -15.7910063765       27.1116858414  W2        11298           0.0000000000
     30285     10095  TIP3      H2              5.0107312922      -14.8653063765       28.3022558414  W2        11298           0.0000000000
     30286     10096  TIP3      OH2            11.2914912922        0.0803136235       28.4918558414  W2        11300           0.0000000000
     30287     10096  TIP3      H1             12.1575112922        0.4470536235       28.3136758414  W2        11300           0.0000000000
     30288     10096  TIP3      H2             11.0447712922       -0.3588863765       27.6779358414  W2        11300           0.0000000000
     30289     10097  TIP3      OH2             4.2452612922       -0.2090963765       27.1194458414  W2        11304           0.0000000000
     30290     10097  TIP3      H1              3.9777212922        0.0771936235       27.9927558414  W2        11304           0.0000000000
     30291     10097  TIP3      H2              5.0165212922       -0.7551763765       27.2716958414  W2        11304           0.0000000000
     30292     10098  TIP3      OH2            30.3992812922      -10.0175463765       27.8423958414  W2        11335           0.0000000000
     30293     10098  TIP3      H1             31.1002712922       -9.9948563765       28.4937958414  W2        11335           0.0000000000
     30294     10098  TIP3      H2             30.7015712922      -10.6455763765       27.1863258414  W2        11335           0.0000000000
     30295     10099  TIP3      OH2            32.6220812922       -9.1033563765       29.4406058414  W2        11343           0.0000000000
     30296     10099  TIP3      H1             33.2016312922       -8.9533263765       30.1874958414  W2        11343           0.0000000000
     30297     10099  TIP3      H2             33.0360812922       -8.6326163765       28.7172458414  W2        11343           0.0000000000
     30298     10100  TIP3      OH2            36.3209212922      -17.3533163765       29.2535758414  W2        11347           0.0000000000
     30299     10100  TIP3      H1             35.4209912922      -17.2144163765       29.5486358414  W2        11347           0.0000000000
     30300     10100  TIP3      H2             36.5727612922      -16.5218563765       28.8517458414  W2        11347           0.0000000000
     30301     10101  TIP3      OH2            32.9224812922       -0.2560163765       28.2930758414  W2        11354           0.0000000000
     30302     10101  TIP3      H1             33.2973212922       -1.0004063765       27.8223358414  W2        11354           0.0000000000
     30303     10101  TIP3      H2             32.9268512922       -0.5259563765       29.2114058414  W2        11354           0.0000000000
     30304     10102  TIP3      OH2            34.0993912922       -8.0705263765       27.0703958414  W2        11361           0.0000000000
     30305     10102  TIP3      H1             34.1414712922       -8.2931363765       26.1403958414  W2        11361           0.0000000000
     30306     10102  TIP3      H2             34.9486012922       -7.6718163765       27.2603858414  W2        11361           0.0000000000
     30307     10103  TIP3      OH2            29.6721412922      -14.1947063765       27.7407258414  W2        11362           0.0000000000
     30308     10103  TIP3      H1             29.4186212922      -14.1755463765       28.6635358414  W2        11362           0.0000000000
     30309     10103  TIP3      H2             29.4153512922      -15.0661663765       27.4393458414  W2        11362           0.0000000000
     30310     10104  TIP3      OH2            26.5544312922      -13.7490563765       26.8417658414  W2        11369           0.0000000000
     30311     10104  TIP3      H1             26.1235012922      -14.1940463765       27.5715058414  W2        11369           0.0000000000
     30312     10104  TIP3      H2             25.8363012922      -13.3774263765       26.3295158414  W2        11369           0.0000000000
     30313     10105  TIP3      OH2            21.0709812922      -13.2609063765       29.3176758414  W2        11371           0.0000000000
     30314     10105  TIP3      H1             21.5451512922      -12.6699163765       28.7327658414  W2        11371           0.0000000000
     30315     10105  TIP3      H2             20.3536212922      -12.7306163765       29.6646858414  W2        11371           0.0000000000
     30316     10106  TIP3      OH2            25.1726212922      -10.9717663765       28.2242058414  W2        11377           0.0000000000
     30317     10106  TIP3      H1             24.6301312922      -11.3513863765       27.5329658414  W2        11377           0.0000000000
     30318     10106  TIP3      H2             26.0061112922      -10.7772963765       27.7956158414  W2        11377           0.0000000000
     30319     10107  TIP3      OH2            32.4055812922      -13.5922063765       28.3592758414  W2        11385           0.0000000000
     30320     10107  TIP3      H1             31.4670012922      -13.4806463765       28.2081558414  W2        11385           0.0000000000
     30321     10107  TIP3      H2             32.7027912922      -12.7355163765       28.6658458414  W2        11385           0.0000000000
     30322     10108  TIP3      OH2            30.6333112922       -4.9477663765       29.1854758414  W2        11389           0.0000000000
     30323     10108  TIP3      H1             30.3381512922       -4.1209763765       29.5669558414  W2        11389           0.0000000000
     30324     10108  TIP3      H2             29.9303112922       -5.5670763765       29.3816158414  W2        11389           0.0000000000
     30325     10109  TIP3      OH2            21.7624412922       -8.7309663765       27.9211958414  W2        11396           0.0000000000
     30326     10109  TIP3      H1             22.3784312922       -8.1042463765       28.3006758414  W2        11396           0.0000000000
     30327     10109  TIP3      H2             20.9007012922       -8.4149863765       28.1928458414  W2        11396           0.0000000000
     30328     10110  TIP3      OH2            33.6965312922       -4.7529063765       27.9999558414  W2        11401           0.0000000000
     30329     10110  TIP3      H1             34.0498412922       -5.1329263765       28.8043058414  W2        11401           0.0000000000
     30330     10110  TIP3      H2             32.7478812922       -4.8464263765       28.0868858414  W2        11401           0.0000000000
     30331     10111  TIP3      OH2            27.7873112922       -3.6412963765       26.4469558414  W2        11406           0.0000000000
     30332     10111  TIP3      H1             28.0262912922       -4.3894863765       25.8998458414  W2        11406           0.0000000000
     30333     10111  TIP3      H2             27.5184412922       -4.0291263765       27.2797358414  W2        11406           0.0000000000
     30334     10112  TIP3      OH2            26.7243712922       -4.0709163765       28.9032158414  W2        11407           0.0000000000
     30335     10112  TIP3      H1             26.8711712922       -4.5909363765       29.6933058414  W2        11407           0.0000000000
     30336     10112  TIP3      H2             26.7215412922       -3.1641563765       29.2098058414  W2        11407           0.0000000000
     30337     10113  TIP3      OH2            23.1774812922       -6.8185863765       29.4137558414  W2        11408           0.0000000000
     30338     10113  TIP3      H1             22.4914112922       -6.4663363765       29.9807258414  W2        11408           0.0000000000
     30339     10113  TIP3      H2             23.7002712922       -6.0556263765       29.1671858414  W2        11408           0.0000000000
     30340     10114  TIP3      OH2            29.4620912922       -2.3735563765       29.6526358414  W2        11411           0.0000000000
     30341     10114  TIP3      H1             28.6457012922       -1.8765863765       29.7050658414  W2        11411           0.0000000000
     30342     10114  TIP3      H2             29.9917212922       -1.8982063765       29.0125158414  W2        11411           0.0000000000
     30343     10115  TIP3      OH2            26.8004012922       -1.3298363765       29.6343258414  W2        11415           0.0000000000
     30344     10115  TIP3      H1             26.9612712922       -0.5300863765       29.1335858414  W2        11415           0.0000000000
     30345     10115  TIP3      H2             26.6031812922       -1.0232363765       30.5193858414  W2        11415           0.0000000000
     30346     10116  TIP3      OH2            25.5348412922      -14.6319163765       29.2500858414  W2        11416           0.0000000000
     30347     10116  TIP3      H1             25.4513212922      -13.7436063765       29.5967258414  W2        11416           0.0000000000
     30348     10116  TIP3      H2             26.4248712922      -14.8972463765       29.4817658414  W2        11416           0.0000000000
     30349     10117  TIP3      OH2            23.7933712922       -4.2046963765       28.3105358414  W2        11419           0.0000000000
     30350     10117  TIP3      H1             24.3855212922       -3.5052163765       28.5867758414  W2        11419           0.0000000000
     30351     10117  TIP3      H2             24.2526712922       -4.6377463765       27.5909958414  W2        11419           0.0000000000
     30352     10118  TIP3      OH2            22.1092912922      -11.5403963765       27.4264758414  W2        11420           0.0000000000
     30353     10118  TIP3      H1             22.0645512922      -10.6010863765       27.6051758414  W2        11420           0.0000000000
     30354     10118  TIP3      H2             21.2216112922      -11.7759063765       27.1566858414  W2        11420           0.0000000000
     30355     10119  TIP3      OH2            29.8254912922       -1.7781563765       26.5855558414  W2        11426           0.0000000000
     30356     10119  TIP3      H1             29.1815912922       -2.4092963765       26.9069258414  W2        11426           0.0000000000
     30357     10119  TIP3      H2             30.5873212922       -2.3093563765       26.3539058414  W2        11426           0.0000000000
     30358     10120  TIP3      OH2            34.4297812922       -1.9611663765       26.8193558414  W2        11428           0.0000000000
     30359     10120  TIP3      H1             34.7128212922       -2.7556463765       27.2720458414  W2        11428           0.0000000000
     30360     10120  TIP3      H2             35.1695712922       -1.7280663765       26.2584658414  W2        11428           0.0000000000
     30361     10121  TIP3      OH2            25.3845112922       -6.0516763765       26.6768458414  W2        11430           0.0000000000
     30362     10121  TIP3      H1             25.4489212922       -6.8457163765       27.2074858414  W2        11430           0.0000000000
     30363     10121  TIP3      H2             26.0374312922       -6.1703963765       25.9870458414  W2        11430           0.0000000000
     30364     10122  TIP3      OH2            30.7368512922       -5.0045063765       26.4126458414  W2        11432           0.0000000000
     30365     10122  TIP3      H1             30.4682612922       -4.8242963765       27.3135358414  W2        11432           0.0000000000
     30366     10122  TIP3      H2             30.5304112922       -5.9298863765       26.2812258414  W2        11432           0.0000000000
     30367     10123  TIP3      OH2            26.5338912922       -8.0790563765       28.9826458414  W2        11435           0.0000000000
     30368     10123  TIP3      H1             26.0740912922       -8.5632263765       29.6684958414  W2        11435           0.0000000000
     30369     10123  TIP3      H2             26.7887612922       -8.7475163765       28.3466958414  W2        11435           0.0000000000
     30370     10124  TIP3      OH2            27.6049312922       -9.8358763765       27.2449658414  W2        11437           0.0000000000
     30371     10124  TIP3      H1             27.4244312922       -9.9907563765       26.3177958414  W2        11437           0.0000000000
     30372     10124  TIP3      H2             28.5549812922       -9.7280063765       27.2897558414  W2        11437           0.0000000000
     30373     10125  TIP3      OH2            27.5021012922        0.8544936235       28.2463258414  W2        11452           0.0000000000
     30374     10125  TIP3      H1             28.4351712922        1.0123636235       28.3901658414  W2        11452           0.0000000000
     30375     10125  TIP3      H2             27.2379812922        1.5297936235       27.6214758414  W2        11452           0.0000000000
     30376     10126  TIP3      OH2            21.0705912922       -4.5091263765       27.7291358414  W2        11453           0.0000000000
     30377     10126  TIP3      H1             21.9845112922       -4.4302363765       28.0025258414  W2        11453           0.0000000000
     30378     10126  TIP3      H2             21.0779012922       -5.1961663765       27.0626958414  W2        11453           0.0000000000
     30379     10127  TIP3      OH2            36.4648112922      -11.4184963765       27.4312258414  W2        11458           0.0000000000
     30380     10127  TIP3      H1             36.5612512922      -10.7517963765       26.7511958414  W2        11458           0.0000000000
     30381     10127  TIP3      H2             36.3247712922      -12.2338663765       26.9497758414  W2        11458           0.0000000000
     30382     10128  TIP3      OH2            35.7121912922      -14.0105163765       26.5487758414  W2        11462           0.0000000000
     30383     10128  TIP3      H1             36.3227712922      -14.3818363765       27.1855958414  W2        11462           0.0000000000
     30384     10128  TIP3      H2             34.8753412922      -14.4318263765       26.7447758414  W2        11462           0.0000000000
     30385     10129  TIP3      OH2            21.3821912922      -17.0773963765       29.1967258414  W2        11488           0.0000000000
     30386     10129  TIP3      H1             21.8212612922      -16.4663463765       28.6050758414  W2        11488           0.0000000000
     30387     10129  TIP3      H2             20.7484312922      -16.5389863765       29.6707258414  W2        11488           0.0000000000
     30388     10130  TIP3      OH2            23.2431012922      -15.1612463765       27.6391358414  W2        11493           0.0000000000
     30389     10130  TIP3      H1             23.7344412922      -15.7910063765       27.1116858414  W2        11493           0.0000000000
     30390     10130  TIP3      H2             23.8667312922      -14.8653063765       28.3022558414  W2        11493           0.0000000000
     30391     10131  TIP3      OH2            30.1474912922        0.0803136235       28.4918558414  W2        11495           0.0000000000
     30392     10131  TIP3      H1             31.0135112922        0.4470536235       28.3136758414  W2        11495           0.0000000000
     30393     10131  TIP3      H2             29.9007712922       -0.3588863765       27.6779358414  W2        11495           0.0000000000
     30394     10132  TIP3      OH2            23.1012612922       -0.2090963765       27.1194458414  W2        11498           0.0000000000
     30395     10132  TIP3      H1             22.8337212922        0.0771936235       27.9927558414  W2        11498           0.0000000000
     30396     10132  TIP3      H2             23.8725212922       -0.7551763765       27.2716958414  W2        11498           0.0000000000
     30397     10133  TIP3      OH2           -26.1687187078        8.8384536235       27.8423958414  W2        11531           0.0000000000
     30398     10133  TIP3      H1            -25.4677287078        8.8611436235       28.4937958414  W2        11531           0.0000000000
     30399     10133  TIP3      H2            -25.8664287078        8.2104236235       27.1863258414  W2        11531           0.0000000000
     30400     10134  TIP3      OH2           -23.9459187078        9.7526436235       29.4406058414  W2        11540           0.0000000000
     30401     10134  TIP3      H1            -23.3663687078        9.9026736235       30.1874958414  W2        11540           0.0000000000
     30402     10134  TIP3      H2            -23.5319187078       10.2233836235       28.7172458414  W2        11540           0.0000000000
     30403     10135  TIP3      OH2           -20.2470787078        1.5026836235       29.2535758414  W2        11544           0.0000000000
     30404     10135  TIP3      H1            -21.1470087078        1.6415836235       29.5486358414  W2        11544           0.0000000000
     30405     10135  TIP3      H2            -19.9952387078        2.3341436235       28.8517458414  W2        11544           0.0000000000
     30406     10136  TIP3      OH2           -19.0579387078       15.8689236235       27.6299658414  W2        11546           0.0000000000
     30407     10136  TIP3      H1            -18.9845887078       16.8079436235       27.8004958414  W2        11546           0.0000000000
     30408     10136  TIP3      H2            -18.1524287078       15.5637836235       27.5736958414  W2        11546           0.0000000000
     30409     10137  TIP3      OH2           -23.6455187078       18.5999836235       28.2930758414  W2        11553           0.0000000000
     30410     10137  TIP3      H1            -23.2706787078       17.8555936235       27.8223358414  W2        11553           0.0000000000
     30411     10137  TIP3      H2            -23.6411487078       18.3300436235       29.2114058414  W2        11553           0.0000000000
     30412     10138  TIP3      OH2           -22.4686087078       10.7854736235       27.0703958414  W2        11560           0.0000000000
     30413     10138  TIP3      H1            -22.4265287078       10.5628636235       26.1403958414  W2        11560           0.0000000000
     30414     10138  TIP3      H2            -21.6193987078       11.1841836235       27.2603858414  W2        11560           0.0000000000
     30415     10139  TIP3      OH2           -26.8958587078        4.6612936235       27.7407258414  W2        11561           0.0000000000
     30416     10139  TIP3      H1            -27.1493787078        4.6804536235       28.6635358414  W2        11561           0.0000000000
     30417     10139  TIP3      H2            -27.1526487078        3.7898336235       27.4393458414  W2        11561           0.0000000000
     30418     10140  TIP3      OH2           -30.0135687078        5.1069436235       26.8417658414  W2        11568           0.0000000000
     30419     10140  TIP3      H1            -30.4444987078        4.6619536235       27.5715058414  W2        11568           0.0000000000
     30420     10140  TIP3      H2            -30.7316987078        5.4785736235       26.3295158414  W2        11568           0.0000000000
     30421     10141  TIP3      OH2           -35.4970187078        5.5950936235       29.3176758414  W2        11570           0.0000000000
     30422     10141  TIP3      H1            -35.0228487078        6.1860836235       28.7327658414  W2        11570           0.0000000000
     30423     10141  TIP3      H2            -36.2143787078        6.1253836235       29.6646858414  W2        11570           0.0000000000
     30424     10142  TIP3      OH2           -31.3953787078        7.8842336235       28.2242058414  W2        11576           0.0000000000
     30425     10142  TIP3      H1            -31.9378687078        7.5046136235       27.5329658414  W2        11576           0.0000000000
     30426     10142  TIP3      H2            -30.5618887078        8.0787036235       27.7956158414  W2        11576           0.0000000000
     30427     10143  TIP3      OH2           -24.1624187078        5.2637936235       28.3592758414  W2        11584           0.0000000000
     30428     10143  TIP3      H1            -25.1009987078        5.3753536235       28.2081558414  W2        11584           0.0000000000
     30429     10143  TIP3      H2            -23.8652087078        6.1204836235       28.6658458414  W2        11584           0.0000000000
     30430     10144  TIP3      OH2           -25.9346887078       13.9082336235       29.1854758414  W2        11588           0.0000000000
     30431     10144  TIP3      H1            -26.2298487078       14.7350236235       29.5669558414  W2        11588           0.0000000000
     30432     10144  TIP3      H2            -26.6376887078       13.2889236235       29.3816158414  W2        11588           0.0000000000
     30433     10145  TIP3      OH2           -18.5591987078        7.3404736235       29.7146858414  W2        11592           0.0000000000
     30434     10145  TIP3      H1            -19.1135687078        6.9442736235       29.0424358414  W2        11592           0.0000000000
     30435     10145  TIP3      H2            -18.4588387078        8.2509936235       29.4370158414  W2        11592           0.0000000000
     30436     10146  TIP3      OH2           -34.8055587078       10.1250336235       27.9211958414  W2        11597           0.0000000000
     30437     10146  TIP3      H1            -34.1895687078       10.7517536235       28.3006758414  W2        11597           0.0000000000
     30438     10146  TIP3      H2            -35.6672987078       10.4410136235       28.1928458414  W2        11597           0.0000000000
     30439     10147  TIP3      OH2           -22.8714687078       14.1030936235       27.9999558414  W2        11602           0.0000000000
     30440     10147  TIP3      H1            -22.5181587078       13.7230736235       28.8043058414  W2        11602           0.0000000000
     30441     10147  TIP3      H2            -23.8201187078       14.0095736235       28.0868858414  W2        11602           0.0000000000
     30442     10148  TIP3      OH2           -18.3680287078       18.5823436235       28.2009758414  W2        11604           0.0000000000
     30443     10148  TIP3      H1            -17.6242387078       19.1683936235       28.0611358414  W2        11604           0.0000000000
     30444     10148  TIP3      H2            -19.0622187078       19.1509236235       28.5342158414  W2        11604           0.0000000000
     30445     10149  TIP3      OH2           -28.7806887078       15.2147036235       26.4469558414  W2        11608           0.0000000000
     30446     10149  TIP3      H1            -28.5417087078       14.4665136235       25.8998458414  W2        11608           0.0000000000
     30447     10149  TIP3      H2            -29.0495587078       14.8268736235       27.2797358414  W2        11608           0.0000000000
     30448     10150  TIP3      OH2           -29.8436287078       14.7850836235       28.9032158414  W2        11609           0.0000000000
     30449     10150  TIP3      H1            -29.6968287078       14.2650636235       29.6933058414  W2        11609           0.0000000000
     30450     10150  TIP3      H2            -29.8464587078       15.6918436235       29.2098058414  W2        11609           0.0000000000
     30451     10151  TIP3      OH2           -33.3905187078       12.0374136235       29.4137558414  W2        11610           0.0000000000
     30452     10151  TIP3      H1            -34.0765887078       12.3896636235       29.9807258414  W2        11610           0.0000000000
     30453     10151  TIP3      H2            -32.8677287078       12.8003736235       29.1671858414  W2        11610           0.0000000000
     30454     10152  TIP3      OH2           -27.1059087078       16.4824436235       29.6526358414  W2        11613           0.0000000000
     30455     10152  TIP3      H1            -27.9222987078       16.9794136235       29.7050658414  W2        11613           0.0000000000
     30456     10152  TIP3      H2            -26.5762787078       16.9577936235       29.0125158414  W2        11613           0.0000000000
     30457     10153  TIP3      OH2           -29.7675987078       17.5261636235       29.6343258414  W2        11617           0.0000000000
     30458     10153  TIP3      H1            -29.6067287078       18.3259136235       29.1335858414  W2        11617           0.0000000000
     30459     10153  TIP3      H2            -29.9648187078       17.8327636235       30.5193858414  W2        11617           0.0000000000
     30460     10154  TIP3      OH2           -31.0331587078        4.2240836235       29.2500858414  W2        11618           0.0000000000
     30461     10154  TIP3      H1            -31.1166787078        5.1123936235       29.5967258414  W2        11618           0.0000000000
     30462     10154  TIP3      H2            -30.1431287078        3.9587536235       29.4817658414  W2        11618           0.0000000000
     30463     10155  TIP3      OH2           -32.7746287078       14.6513036235       28.3105358414  W2        11621           0.0000000000
     30464     10155  TIP3      H1            -32.1824787078       15.3507836235       28.5867758414  W2        11621           0.0000000000
     30465     10155  TIP3      H2            -32.3153287078       14.2182536235       27.5909958414  W2        11621           0.0000000000
     30466     10156  TIP3      OH2           -34.4587087078        7.3156036235       27.4264758414  W2        11622           0.0000000000
     30467     10156  TIP3      H1            -34.5034487078        8.2549136235       27.6051758414  W2        11622           0.0000000000
     30468     10156  TIP3      H2            -35.3463887078        7.0800936235       27.1566858414  W2        11622           0.0000000000
     30469     10157  TIP3      OH2           -26.7425087078       17.0778436235       26.5855558414  W2        11628           0.0000000000
     30470     10157  TIP3      H1            -27.3864087078       16.4467036235       26.9069258414  W2        11628           0.0000000000
     30471     10157  TIP3      H2            -25.9806787078       16.5466436235       26.3539058414  W2        11628           0.0000000000
     30472     10158  TIP3      OH2           -22.1382187078       16.8948336235       26.8193558414  W2        11630           0.0000000000
     30473     10158  TIP3      H1            -21.8551787078       16.1003536235       27.2720458414  W2        11630           0.0000000000
     30474     10158  TIP3      H2            -21.3984287078       17.1279336235       26.2584658414  W2        11630           0.0000000000
     30475     10159  TIP3      OH2           -31.1834887078       12.8043236235       26.6768458414  W2        11632           0.0000000000
     30476     10159  TIP3      H1            -31.1190787078       12.0102836235       27.2074858414  W2        11632           0.0000000000
     30477     10159  TIP3      H2            -30.5305687078       12.6856036235       25.9870458414  W2        11632           0.0000000000
     30478     10160  TIP3      OH2           -25.8311487078       13.8514936235       26.4126458414  W2        11634           0.0000000000
     30479     10160  TIP3      H1            -26.0997387078       14.0317036235       27.3135358414  W2        11634           0.0000000000
     30480     10160  TIP3      H2            -26.0375887078       12.9261136235       26.2812258414  W2        11634           0.0000000000
     30481     10161  TIP3      OH2           -30.0341087078       10.7769436235       28.9826458414  W2        11637           0.0000000000
     30482     10161  TIP3      H1            -30.4939087078       10.2927736235       29.6684958414  W2        11637           0.0000000000
     30483     10161  TIP3      H2            -29.7792387078       10.1084836235       28.3466958414  W2        11637           0.0000000000
     30484     10162  TIP3      OH2           -28.9630687078        9.0201236235       27.2449658414  W2        11639           0.0000000000
     30485     10162  TIP3      H1            -29.1435687078        8.8652436235       26.3177958414  W2        11639           0.0000000000
     30486     10162  TIP3      H2            -28.0130187078        9.1279936235       27.2897558414  W2        11639           0.0000000000
     30487     10163  TIP3      OH2           -19.5732387078       11.3745436235       26.6907758414  W2        11641           0.0000000000
     30488     10163  TIP3      H1            -19.8467587078       10.9500936235       25.8776058414  W2        11641           0.0000000000
     30489     10163  TIP3      H2            -19.5338287078       12.3059936235       26.4738158414  W2        11641           0.0000000000
     30490     10164  TIP3      OH2           -29.0658987078       19.7104936235       28.2463258414  W2        11655           0.0000000000
     30491     10164  TIP3      H1            -28.1328287078       19.8683636235       28.3901658414  W2        11655           0.0000000000
     30492     10164  TIP3      H2            -29.3300187078       20.3857936235       27.6214758414  W2        11655           0.0000000000
     30493     10165  TIP3      OH2           -35.4974087078       14.3468736235       27.7291358414  W2        11656           0.0000000000
     30494     10165  TIP3      H1            -34.5834887078       14.4257636235       28.0025258414  W2        11656           0.0000000000
     30495     10165  TIP3      H2            -35.4900987078       13.6598336235       27.0626958414  W2        11656           0.0000000000
     30496     10166  TIP3      OH2           -18.4520887078       10.1979436235       28.8805158414  W2        11666           0.0000000000
     30497     10166  TIP3      H1            -18.9739787078       10.5543536235       28.1616058414  W2        11666           0.0000000000
     30498     10166  TIP3      H2            -18.4851687078       10.8727236235       29.5586058414  W2        11666           0.0000000000
     30499     10167  TIP3      OH2           -20.1031887078        7.4375036235       27.4312258414  W2        11667           0.0000000000
     30500     10167  TIP3      H1            -20.0067487078        8.1042036235       26.7511958414  W2        11667           0.0000000000
     30501     10167  TIP3      H2            -20.2432287078        6.6221336235       26.9497758414  W2        11667           0.0000000000
     30502     10168  TIP3      OH2           -20.8558087078        4.8454836235       26.5487758414  W2        11672           0.0000000000
     30503     10168  TIP3      H1            -20.2452287078        4.4741636235       27.1855958414  W2        11672           0.0000000000
     30504     10168  TIP3      H2            -21.6926587078        4.4241736235       26.7447758414  W2        11672           0.0000000000
     30505     10169  TIP3      OH2           -18.7431387078        3.7310636235       28.0909958414  W2        11682           0.0000000000
     30506     10169  TIP3      H1            -18.3308787078        3.0096336235       27.6157958414  W2        11682           0.0000000000
     30507     10169  TIP3      H2            -18.0614887078        4.4005236235       28.1494258414  W2        11682           0.0000000000
     30508     10170  TIP3      OH2           -35.1858087078        1.7786036235       29.1967258414  W2        11703           0.0000000000
     30509     10170  TIP3      H1            -34.7467387078        2.3896536235       28.6050758414  W2        11703           0.0000000000
     30510     10170  TIP3      H2            -35.8195687078        2.3170136235       29.6707258414  W2        11703           0.0000000000
     30511     10171  TIP3      OH2           -33.3248987078        3.6947536235       27.6391358414  W2        11708           0.0000000000
     30512     10171  TIP3      H1            -32.8335587078        3.0649936235       27.1116858414  W2        11708           0.0000000000
     30513     10171  TIP3      H2            -32.7012687078        3.9906936235       28.3022558414  W2        11708           0.0000000000
     30514     10172  TIP3      OH2           -26.4205087078       18.9363136235       28.4918558414  W2        11710           0.0000000000
     30515     10172  TIP3      H1            -25.5544887078       19.3030536235       28.3136758414  W2        11710           0.0000000000
     30516     10172  TIP3      H2            -26.6672287078       18.4971136235       27.6779358414  W2        11710           0.0000000000
     30517     10173  TIP3      OH2           -33.4667387078       18.6469036235       27.1194458414  W2        11714           0.0000000000
     30518     10173  TIP3      H1            -33.7342787078       18.9331936235       27.9927558414  W2        11714           0.0000000000
     30519     10173  TIP3      H2            -32.6954787078       18.1008236235       27.2716958414  W2        11714           0.0000000000
     30520     10174  TIP3      OH2            -7.3127187078        8.8384536235       27.8423958414  W2        11747           0.0000000000
     30521     10174  TIP3      H1             -6.6117287078        8.8611436235       28.4937958414  W2        11747           0.0000000000
     30522     10174  TIP3      H2             -7.0104287078        8.2104236235       27.1863258414  W2        11747           0.0000000000
     30523     10175  TIP3      OH2            -5.0899187078        9.7526436235       29.4406058414  W2        11756           0.0000000000
     30524     10175  TIP3      H1             -4.5103687078        9.9026736235       30.1874958414  W2        11756           0.0000000000
     30525     10175  TIP3      H2             -4.6759187078       10.2233836235       28.7172458414  W2        11756           0.0000000000
     30526     10176  TIP3      OH2            -1.3910787078        1.5026836235       29.2535758414  W2        11760           0.0000000000
     30527     10176  TIP3      H1             -2.2910087078        1.6415836235       29.5486358414  W2        11760           0.0000000000
     30528     10176  TIP3      H2             -1.1392387078        2.3341436235       28.8517458414  W2        11760           0.0000000000
     30529     10177  TIP3      OH2            -0.2019387078       15.8689236235       27.6299658414  W2        11762           0.0000000000
     30530     10177  TIP3      H1             -0.1285887078       16.8079436235       27.8004958414  W2        11762           0.0000000000
     30531     10177  TIP3      H2              0.7035712922       15.5637836235       27.5736958414  W2        11762           0.0000000000
     30532     10178  TIP3      OH2            -4.7895187078       18.5999836235       28.2930758414  W2        11769           0.0000000000
     30533     10178  TIP3      H1             -4.4146787078       17.8555936235       27.8223358414  W2        11769           0.0000000000
     30534     10178  TIP3      H2             -4.7851487078       18.3300436235       29.2114058414  W2        11769           0.0000000000
     30535     10179  TIP3      OH2            -3.6126087078       10.7854736235       27.0703958414  W2        11776           0.0000000000
     30536     10179  TIP3      H1             -3.5705287078       10.5628636235       26.1403958414  W2        11776           0.0000000000
     30537     10179  TIP3      H2             -2.7633987078       11.1841836235       27.2603858414  W2        11776           0.0000000000
     30538     10180  TIP3      OH2            -8.0398587078        4.6612936235       27.7407258414  W2        11777           0.0000000000
     30539     10180  TIP3      H1             -8.2933787078        4.6804536235       28.6635358414  W2        11777           0.0000000000
     30540     10180  TIP3      H2             -8.2966487078        3.7898336235       27.4393458414  W2        11777           0.0000000000
     30541     10181  TIP3      OH2           -11.1575687078        5.1069436235       26.8417658414  W2        11784           0.0000000000
     30542     10181  TIP3      H1            -11.5884987078        4.6619536235       27.5715058414  W2        11784           0.0000000000
     30543     10181  TIP3      H2            -11.8756987078        5.4785736235       26.3295158414  W2        11784           0.0000000000
     30544     10182  TIP3      OH2           -16.6410187078        5.5950936235       29.3176758414  W2        11786           0.0000000000
     30545     10182  TIP3      H1            -16.1668487078        6.1860836235       28.7327658414  W2        11786           0.0000000000
     30546     10182  TIP3      H2            -17.3583787078        6.1253836235       29.6646858414  W2        11786           0.0000000000
     30547     10183  TIP3      OH2           -12.5393787078        7.8842336235       28.2242058414  W2        11792           0.0000000000
     30548     10183  TIP3      H1            -13.0818687078        7.5046136235       27.5329658414  W2        11792           0.0000000000
     30549     10183  TIP3      H2            -11.7058887078        8.0787036235       27.7956158414  W2        11792           0.0000000000
     30550     10184  TIP3      OH2            -5.3064187078        5.2637936235       28.3592758414  W2        11800           0.0000000000
     30551     10184  TIP3      H1             -6.2449987078        5.3753536235       28.2081558414  W2        11800           0.0000000000
     30552     10184  TIP3      H2             -5.0092087078        6.1204836235       28.6658458414  W2        11800           0.0000000000
     30553     10185  TIP3      OH2            -7.0786887078       13.9082336235       29.1854758414  W2        11804           0.0000000000
     30554     10185  TIP3      H1             -7.3738487078       14.7350236235       29.5669558414  W2        11804           0.0000000000
     30555     10185  TIP3      H2             -7.7816887078       13.2889236235       29.3816158414  W2        11804           0.0000000000
     30556     10186  TIP3      OH2             0.2968012922        7.3404736235       29.7146858414  W2        11808           0.0000000000
     30557     10186  TIP3      H1             -0.2575687078        6.9442736235       29.0424358414  W2        11808           0.0000000000
     30558     10186  TIP3      H2              0.3971612922        8.2509936235       29.4370158414  W2        11808           0.0000000000
     30559     10187  TIP3      OH2           -15.9495587078       10.1250336235       27.9211958414  W2        11813           0.0000000000
     30560     10187  TIP3      H1            -15.3335687078       10.7517536235       28.3006758414  W2        11813           0.0000000000
     30561     10187  TIP3      H2            -16.8112987078       10.4410136235       28.1928458414  W2        11813           0.0000000000
     30562     10188  TIP3      OH2            -4.0154687078       14.1030936235       27.9999558414  W2        11818           0.0000000000
     30563     10188  TIP3      H1             -3.6621587078       13.7230736235       28.8043058414  W2        11818           0.0000000000
     30564     10188  TIP3      H2             -4.9641187078       14.0095736235       28.0868858414  W2        11818           0.0000000000
     30565     10189  TIP3      OH2             0.4879712922       18.5823436235       28.2009758414  W2        11820           0.0000000000
     30566     10189  TIP3      H1              1.2317612922       19.1683936235       28.0611358414  W2        11820           0.0000000000
     30567     10189  TIP3      H2             -0.2062187078       19.1509236235       28.5342158414  W2        11820           0.0000000000
     30568     10190  TIP3      OH2            -9.9246887078       15.2147036235       26.4469558414  W2        11824           0.0000000000
     30569     10190  TIP3      H1             -9.6857087078       14.4665136235       25.8998458414  W2        11824           0.0000000000
     30570     10190  TIP3      H2            -10.1935587078       14.8268736235       27.2797358414  W2        11824           0.0000000000
     30571     10191  TIP3      OH2           -10.9876287078       14.7850836235       28.9032158414  W2        11825           0.0000000000
     30572     10191  TIP3      H1            -10.8408287078       14.2650636235       29.6933058414  W2        11825           0.0000000000
     30573     10191  TIP3      H2            -10.9904587078       15.6918436235       29.2098058414  W2        11825           0.0000000000
     30574     10192  TIP3      OH2           -14.5345187078       12.0374136235       29.4137558414  W2        11826           0.0000000000
     30575     10192  TIP3      H1            -15.2205887078       12.3896636235       29.9807258414  W2        11826           0.0000000000
     30576     10192  TIP3      H2            -14.0117287078       12.8003736235       29.1671858414  W2        11826           0.0000000000
     30577     10193  TIP3      OH2            -8.2499087078       16.4824436235       29.6526358414  W2        11829           0.0000000000
     30578     10193  TIP3      H1             -9.0662987078       16.9794136235       29.7050658414  W2        11829           0.0000000000
     30579     10193  TIP3      H2             -7.7202787078       16.9577936235       29.0125158414  W2        11829           0.0000000000
     30580     10194  TIP3      OH2           -10.9115987078       17.5261636235       29.6343258414  W2        11833           0.0000000000
     30581     10194  TIP3      H1            -10.7507287078       18.3259136235       29.1335858414  W2        11833           0.0000000000
     30582     10194  TIP3      H2            -11.1088187078       17.8327636235       30.5193858414  W2        11833           0.0000000000
     30583     10195  TIP3      OH2           -12.1771587078        4.2240836235       29.2500858414  W2        11834           0.0000000000
     30584     10195  TIP3      H1            -12.2606787078        5.1123936235       29.5967258414  W2        11834           0.0000000000
     30585     10195  TIP3      H2            -11.2871287078        3.9587536235       29.4817658414  W2        11834           0.0000000000
     30586     10196  TIP3      OH2           -13.9186287078       14.6513036235       28.3105358414  W2        11837           0.0000000000
     30587     10196  TIP3      H1            -13.3264787078       15.3507836235       28.5867758414  W2        11837           0.0000000000
     30588     10196  TIP3      H2            -13.4593287078       14.2182536235       27.5909958414  W2        11837           0.0000000000
     30589     10197  TIP3      OH2           -15.6027087078        7.3156036235       27.4264758414  W2        11838           0.0000000000
     30590     10197  TIP3      H1            -15.6474487078        8.2549136235       27.6051758414  W2        11838           0.0000000000
     30591     10197  TIP3      H2            -16.4903887078        7.0800936235       27.1566858414  W2        11838           0.0000000000
     30592     10198  TIP3      OH2            -7.8865087078       17.0778436235       26.5855558414  W2        11844           0.0000000000
     30593     10198  TIP3      H1             -8.5304087078       16.4467036235       26.9069258414  W2        11844           0.0000000000
     30594     10198  TIP3      H2             -7.1246787078       16.5466436235       26.3539058414  W2        11844           0.0000000000
     30595     10199  TIP3      OH2            -3.2822187078       16.8948336235       26.8193558414  W2        11846           0.0000000000
     30596     10199  TIP3      H1             -2.9991787078       16.1003536235       27.2720458414  W2        11846           0.0000000000
     30597     10199  TIP3      H2             -2.5424287078       17.1279336235       26.2584658414  W2        11846           0.0000000000
     30598     10200  TIP3      OH2           -12.3274887078       12.8043236235       26.6768458414  W2        11848           0.0000000000
     30599     10200  TIP3      H1            -12.2630787078       12.0102836235       27.2074858414  W2        11848           0.0000000000
     30600     10200  TIP3      H2            -11.6745687078       12.6856036235       25.9870458414  W2        11848           0.0000000000
     30601     10201  TIP3      OH2            -6.9751487078       13.8514936235       26.4126458414  W2        11850           0.0000000000
     30602     10201  TIP3      H1             -7.2437387078       14.0317036235       27.3135358414  W2        11850           0.0000000000
     30603     10201  TIP3      H2             -7.1815887078       12.9261136235       26.2812258414  W2        11850           0.0000000000
     30604     10202  TIP3      OH2           -11.1781087078       10.7769436235       28.9826458414  W2        11853           0.0000000000
     30605     10202  TIP3      H1            -11.6379087078       10.2927736235       29.6684958414  W2        11853           0.0000000000
     30606     10202  TIP3      H2            -10.9232387078       10.1084836235       28.3466958414  W2        11853           0.0000000000
     30607     10203  TIP3      OH2           -10.1070687078        9.0201236235       27.2449658414  W2        11855           0.0000000000
     30608     10203  TIP3      H1            -10.2875687078        8.8652436235       26.3177958414  W2        11855           0.0000000000
     30609     10203  TIP3      H2             -9.1570187078        9.1279936235       27.2897558414  W2        11855           0.0000000000
     30610     10204  TIP3      OH2            -0.7172387078       11.3745436235       26.6907758414  W2        11857           0.0000000000
     30611     10204  TIP3      H1             -0.9907587078       10.9500936235       25.8776058414  W2        11857           0.0000000000
     30612     10204  TIP3      H2             -0.6778287078       12.3059936235       26.4738158414  W2        11857           0.0000000000
     30613     10205  TIP3      OH2           -10.2098987078       19.7104936235       28.2463258414  W2        11871           0.0000000000
     30614     10205  TIP3      H1             -9.2768287078       19.8683636235       28.3901658414  W2        11871           0.0000000000
     30615     10205  TIP3      H2            -10.4740187078       20.3857936235       27.6214758414  W2        11871           0.0000000000
     30616     10206  TIP3      OH2           -16.6414087078       14.3468736235       27.7291358414  W2        11872           0.0000000000
     30617     10206  TIP3      H1            -15.7274887078       14.4257636235       28.0025258414  W2        11872           0.0000000000
     30618     10206  TIP3      H2            -16.6340987078       13.6598336235       27.0626958414  W2        11872           0.0000000000
     30619     10207  TIP3      OH2             0.4039112922       10.1979436235       28.8805158414  W2        11882           0.0000000000
     30620     10207  TIP3      H1             -0.1179787078       10.5543536235       28.1616058414  W2        11882           0.0000000000
     30621     10207  TIP3      H2              0.3708312922       10.8727236235       29.5586058414  W2        11882           0.0000000000
     30622     10208  TIP3      OH2            -1.2471887078        7.4375036235       27.4312258414  W2        11883           0.0000000000
     30623     10208  TIP3      H1             -1.1507487078        8.1042036235       26.7511958414  W2        11883           0.0000000000
     30624     10208  TIP3      H2             -1.3872287078        6.6221336235       26.9497758414  W2        11883           0.0000000000
     30625     10209  TIP3      OH2            -1.9998087078        4.8454836235       26.5487758414  W2        11888           0.0000000000
     30626     10209  TIP3      H1             -1.3892287078        4.4741636235       27.1855958414  W2        11888           0.0000000000
     30627     10209  TIP3      H2             -2.8366587078        4.4241736235       26.7447758414  W2        11888           0.0000000000
     30628     10210  TIP3      OH2             0.1128612922        3.7310636235       28.0909958414  W2        11898           0.0000000000
     30629     10210  TIP3      H1              0.5251212922        3.0096336235       27.6157958414  W2        11898           0.0000000000
     30630     10210  TIP3      H2              0.7945112922        4.4005236235       28.1494258414  W2        11898           0.0000000000
     30631     10211  TIP3      OH2           -16.3298087078        1.7786036235       29.1967258414  W2        11919           0.0000000000
     30632     10211  TIP3      H1            -15.8907387078        2.3896536235       28.6050758414  W2        11919           0.0000000000
     30633     10211  TIP3      H2            -16.9635687078        2.3170136235       29.6707258414  W2        11919           0.0000000000
     30634     10212  TIP3      OH2           -14.4688987078        3.6947536235       27.6391358414  W2        11924           0.0000000000
     30635     10212  TIP3      H1            -13.9775587078        3.0649936235       27.1116858414  W2        11924           0.0000000000
     30636     10212  TIP3      H2            -13.8452687078        3.9906936235       28.3022558414  W2        11924           0.0000000000
     30637     10213  TIP3      OH2            -7.5645087078       18.9363136235       28.4918558414  W2        11926           0.0000000000
     30638     10213  TIP3      H1             -6.6984887078       19.3030536235       28.3136758414  W2        11926           0.0000000000
     30639     10213  TIP3      H2             -7.8112287078       18.4971136235       27.6779358414  W2        11926           0.0000000000
     30640     10214  TIP3      OH2           -14.6107387078       18.6469036235       27.1194458414  W2        11930           0.0000000000
     30641     10214  TIP3      H1            -14.8782787078       18.9331936235       27.9927558414  W2        11930           0.0000000000
     30642     10214  TIP3      H2            -13.8394787078       18.1008236235       27.2716958414  W2        11930           0.0000000000
     30643     10215  TIP3      OH2            11.5432812922        8.8384536235       27.8423958414  W2        11963           0.0000000000
     30644     10215  TIP3      H1             12.2442712922        8.8611436235       28.4937958414  W2        11963           0.0000000000
     30645     10215  TIP3      H2             11.8455712922        8.2104236235       27.1863258414  W2        11963           0.0000000000
     30646     10216  TIP3      OH2            13.7660812922        9.7526436235       29.4406058414  W2        11972           0.0000000000
     30647     10216  TIP3      H1             14.3456312922        9.9026736235       30.1874958414  W2        11972           0.0000000000
     30648     10216  TIP3      H2             14.1800812922       10.2233836235       28.7172458414  W2        11972           0.0000000000
     30649     10217  TIP3      OH2            17.4649212922        1.5026836235       29.2535758414  W2        11976           0.0000000000
     30650     10217  TIP3      H1             16.5649912922        1.6415836235       29.5486358414  W2        11976           0.0000000000
     30651     10217  TIP3      H2             17.7167612922        2.3341436235       28.8517458414  W2        11976           0.0000000000
     30652     10218  TIP3      OH2            18.6540612922       15.8689236235       27.6299658414  W2        11978           0.0000000000
     30653     10218  TIP3      H1             18.7274112922       16.8079436235       27.8004958414  W2        11978           0.0000000000
     30654     10218  TIP3      H2             19.5595712922       15.5637836235       27.5736958414  W2        11978           0.0000000000
     30655     10219  TIP3      OH2            14.0664812922       18.5999836235       28.2930758414  W2        11985           0.0000000000
     30656     10219  TIP3      H1             14.4413212922       17.8555936235       27.8223358414  W2        11985           0.0000000000
     30657     10219  TIP3      H2             14.0708512922       18.3300436235       29.2114058414  W2        11985           0.0000000000
     30658     10220  TIP3      OH2            15.2433912922       10.7854736235       27.0703958414  W2        11992           0.0000000000
     30659     10220  TIP3      H1             15.2854712922       10.5628636235       26.1403958414  W2        11992           0.0000000000
     30660     10220  TIP3      H2             16.0926012922       11.1841836235       27.2603858414  W2        11992           0.0000000000
     30661     10221  TIP3      OH2            10.8161412922        4.6612936235       27.7407258414  W2        11993           0.0000000000
     30662     10221  TIP3      H1             10.5626212922        4.6804536235       28.6635358414  W2        11993           0.0000000000
     30663     10221  TIP3      H2             10.5593512922        3.7898336235       27.4393458414  W2        11993           0.0000000000
     30664     10222  TIP3      OH2             7.6984312922        5.1069436235       26.8417658414  W2        12000           0.0000000000
     30665     10222  TIP3      H1              7.2675012922        4.6619536235       27.5715058414  W2        12000           0.0000000000
     30666     10222  TIP3      H2              6.9803012922        5.4785736235       26.3295158414  W2        12000           0.0000000000
     30667     10223  TIP3      OH2             2.2149812922        5.5950936235       29.3176758414  W2        12002           0.0000000000
     30668     10223  TIP3      H1              2.6891512922        6.1860836235       28.7327658414  W2        12002           0.0000000000
     30669     10223  TIP3      H2              1.4976212922        6.1253836235       29.6646858414  W2        12002           0.0000000000
     30670     10224  TIP3      OH2             6.3166212922        7.8842336235       28.2242058414  W2        12008           0.0000000000
     30671     10224  TIP3      H1              5.7741312922        7.5046136235       27.5329658414  W2        12008           0.0000000000
     30672     10224  TIP3      H2              7.1501112922        8.0787036235       27.7956158414  W2        12008           0.0000000000
     30673     10225  TIP3      OH2            13.5495812922        5.2637936235       28.3592758414  W2        12016           0.0000000000
     30674     10225  TIP3      H1             12.6110012922        5.3753536235       28.2081558414  W2        12016           0.0000000000
     30675     10225  TIP3      H2             13.8467912922        6.1204836235       28.6658458414  W2        12016           0.0000000000
     30676     10226  TIP3      OH2            11.7773112922       13.9082336235       29.1854758414  W2        12020           0.0000000000
     30677     10226  TIP3      H1             11.4821512922       14.7350236235       29.5669558414  W2        12020           0.0000000000
     30678     10226  TIP3      H2             11.0743112922       13.2889236235       29.3816158414  W2        12020           0.0000000000
     30679     10227  TIP3      OH2            19.1528012922        7.3404736235       29.7146858414  W2        12024           0.0000000000
     30680     10227  TIP3      H1             18.5984312922        6.9442736235       29.0424358414  W2        12024           0.0000000000
     30681     10227  TIP3      H2             19.2531612922        8.2509936235       29.4370158414  W2        12024           0.0000000000
     30682     10228  TIP3      OH2             2.9064412922       10.1250336235       27.9211958414  W2        12029           0.0000000000
     30683     10228  TIP3      H1              3.5224312922       10.7517536235       28.3006758414  W2        12029           0.0000000000
     30684     10228  TIP3      H2              2.0447012922       10.4410136235       28.1928458414  W2        12029           0.0000000000
     30685     10229  TIP3      OH2            14.8405312922       14.1030936235       27.9999558414  W2        12034           0.0000000000
     30686     10229  TIP3      H1             15.1938412922       13.7230736235       28.8043058414  W2        12034           0.0000000000
     30687     10229  TIP3      H2             13.8918812922       14.0095736235       28.0868858414  W2        12034           0.0000000000
     30688     10230  TIP3      OH2            19.3439712922       18.5823436235       28.2009758414  W2        12036           0.0000000000
     30689     10230  TIP3      H1             20.0877612922       19.1683936235       28.0611358414  W2        12036           0.0000000000
     30690     10230  TIP3      H2             18.6497812922       19.1509236235       28.5342158414  W2        12036           0.0000000000
     30691     10231  TIP3      OH2             8.9313112922       15.2147036235       26.4469558414  W2        12040           0.0000000000
     30692     10231  TIP3      H1              9.1702912922       14.4665136235       25.8998458414  W2        12040           0.0000000000
     30693     10231  TIP3      H2              8.6624412922       14.8268736235       27.2797358414  W2        12040           0.0000000000
     30694     10232  TIP3      OH2             7.8683712922       14.7850836235       28.9032158414  W2        12041           0.0000000000
     30695     10232  TIP3      H1              8.0151712922       14.2650636235       29.6933058414  W2        12041           0.0000000000
     30696     10232  TIP3      H2              7.8655412922       15.6918436235       29.2098058414  W2        12041           0.0000000000
     30697     10233  TIP3      OH2             4.3214812922       12.0374136235       29.4137558414  W2        12042           0.0000000000
     30698     10233  TIP3      H1              3.6354112922       12.3896636235       29.9807258414  W2        12042           0.0000000000
     30699     10233  TIP3      H2              4.8442712922       12.8003736235       29.1671858414  W2        12042           0.0000000000
     30700     10234  TIP3      OH2            10.6060912922       16.4824436235       29.6526358414  W2        12045           0.0000000000
     30701     10234  TIP3      H1              9.7897012922       16.9794136235       29.7050658414  W2        12045           0.0000000000
     30702     10234  TIP3      H2             11.1357212922       16.9577936235       29.0125158414  W2        12045           0.0000000000
     30703     10235  TIP3      OH2             7.9444012922       17.5261636235       29.6343258414  W2        12049           0.0000000000
     30704     10235  TIP3      H1              8.1052712922       18.3259136235       29.1335858414  W2        12049           0.0000000000
     30705     10235  TIP3      H2              7.7471812922       17.8327636235       30.5193858414  W2        12049           0.0000000000
     30706     10236  TIP3      OH2             6.6788412922        4.2240836235       29.2500858414  W2        12050           0.0000000000
     30707     10236  TIP3      H1              6.5953212922        5.1123936235       29.5967258414  W2        12050           0.0000000000
     30708     10236  TIP3      H2              7.5688712922        3.9587536235       29.4817658414  W2        12050           0.0000000000
     30709     10237  TIP3      OH2             4.9373712922       14.6513036235       28.3105358414  W2        12053           0.0000000000
     30710     10237  TIP3      H1              5.5295212922       15.3507836235       28.5867758414  W2        12053           0.0000000000
     30711     10237  TIP3      H2              5.3966712922       14.2182536235       27.5909958414  W2        12053           0.0000000000
     30712     10238  TIP3      OH2             3.2532912922        7.3156036235       27.4264758414  W2        12054           0.0000000000
     30713     10238  TIP3      H1              3.2085512922        8.2549136235       27.6051758414  W2        12054           0.0000000000
     30714     10238  TIP3      H2              2.3656112922        7.0800936235       27.1566858414  W2        12054           0.0000000000
     30715     10239  TIP3      OH2            10.9694912922       17.0778436235       26.5855558414  W2        12060           0.0000000000
     30716     10239  TIP3      H1             10.3255912922       16.4467036235       26.9069258414  W2        12060           0.0000000000
     30717     10239  TIP3      H2             11.7313212922       16.5466436235       26.3539058414  W2        12060           0.0000000000
     30718     10240  TIP3      OH2            15.5737812922       16.8948336235       26.8193558414  W2        12062           0.0000000000
     30719     10240  TIP3      H1             15.8568212922       16.1003536235       27.2720458414  W2        12062           0.0000000000
     30720     10240  TIP3      H2             16.3135712922       17.1279336235       26.2584658414  W2        12062           0.0000000000
     30721     10241  TIP3      OH2             6.5285112922       12.8043236235       26.6768458414  W2        12064           0.0000000000
     30722     10241  TIP3      H1              6.5929212922       12.0102836235       27.2074858414  W2        12064           0.0000000000
     30723     10241  TIP3      H2              7.1814312922       12.6856036235       25.9870458414  W2        12064           0.0000000000
     30724     10242  TIP3      OH2            11.8808512922       13.8514936235       26.4126458414  W2        12066           0.0000000000
     30725     10242  TIP3      H1             11.6122612922       14.0317036235       27.3135358414  W2        12066           0.0000000000
     30726     10242  TIP3      H2             11.6744112922       12.9261136235       26.2812258414  W2        12066           0.0000000000
     30727     10243  TIP3      OH2             7.6778912922       10.7769436235       28.9826458414  W2        12069           0.0000000000
     30728     10243  TIP3      H1              7.2180912922       10.2927736235       29.6684958414  W2        12069           0.0000000000
     30729     10243  TIP3      H2              7.9327612922       10.1084836235       28.3466958414  W2        12069           0.0000000000
     30730     10244  TIP3      OH2             8.7489312922        9.0201236235       27.2449658414  W2        12071           0.0000000000
     30731     10244  TIP3      H1              8.5684312922        8.8652436235       26.3177958414  W2        12071           0.0000000000
     30732     10244  TIP3      H2              9.6989812922        9.1279936235       27.2897558414  W2        12071           0.0000000000
     30733     10245  TIP3      OH2            18.1387612922       11.3745436235       26.6907758414  W2        12073           0.0000000000
     30734     10245  TIP3      H1             17.8652412922       10.9500936235       25.8776058414  W2        12073           0.0000000000
     30735     10245  TIP3      H2             18.1781712922       12.3059936235       26.4738158414  W2        12073           0.0000000000
     30736     10246  TIP3      OH2             8.6461012922       19.7104936235       28.2463258414  W2        12087           0.0000000000
     30737     10246  TIP3      H1              9.5791712922       19.8683636235       28.3901658414  W2        12087           0.0000000000
     30738     10246  TIP3      H2              8.3819812922       20.3857936235       27.6214758414  W2        12087           0.0000000000
     30739     10247  TIP3      OH2             2.2145912922       14.3468736235       27.7291358414  W2        12088           0.0000000000
     30740     10247  TIP3      H1              3.1285112922       14.4257636235       28.0025258414  W2        12088           0.0000000000
     30741     10247  TIP3      H2              2.2219012922       13.6598336235       27.0626958414  W2        12088           0.0000000000
     30742     10248  TIP3      OH2            19.2599112922       10.1979436235       28.8805158414  W2        12098           0.0000000000
     30743     10248  TIP3      H1             18.7380212922       10.5543536235       28.1616058414  W2        12098           0.0000000000
     30744     10248  TIP3      H2             19.2268312922       10.8727236235       29.5586058414  W2        12098           0.0000000000
     30745     10249  TIP3      OH2            17.6088112922        7.4375036235       27.4312258414  W2        12099           0.0000000000
     30746     10249  TIP3      H1             17.7052512922        8.1042036235       26.7511958414  W2        12099           0.0000000000
     30747     10249  TIP3      H2             17.4687712922        6.6221336235       26.9497758414  W2        12099           0.0000000000
     30748     10250  TIP3      OH2            16.8561912922        4.8454836235       26.5487758414  W2        12104           0.0000000000
     30749     10250  TIP3      H1             17.4667712922        4.4741636235       27.1855958414  W2        12104           0.0000000000
     30750     10250  TIP3      H2             16.0193412922        4.4241736235       26.7447758414  W2        12104           0.0000000000
     30751     10251  TIP3      OH2            18.9688612922        3.7310636235       28.0909958414  W2        12114           0.0000000000
     30752     10251  TIP3      H1             19.3811212922        3.0096336235       27.6157958414  W2        12114           0.0000000000
     30753     10251  TIP3      H2             19.6505112922        4.4005236235       28.1494258414  W2        12114           0.0000000000
     30754     10252  TIP3      OH2             2.5261912922        1.7786036235       29.1967258414  W2        12135           0.0000000000
     30755     10252  TIP3      H1              2.9652612922        2.3896536235       28.6050758414  W2        12135           0.0000000000
     30756     10252  TIP3      H2              1.8924312922        2.3170136235       29.6707258414  W2        12135           0.0000000000
     30757     10253  TIP3      OH2             4.3871012922        3.6947536235       27.6391358414  W2        12140           0.0000000000
     30758     10253  TIP3      H1              4.8784412922        3.0649936235       27.1116858414  W2        12140           0.0000000000
     30759     10253  TIP3      H2              5.0107312922        3.9906936235       28.3022558414  W2        12140           0.0000000000
     30760     10254  TIP3      OH2            11.2914912922       18.9363136235       28.4918558414  W2        12142           0.0000000000
     30761     10254  TIP3      H1             12.1575112922       19.3030536235       28.3136758414  W2        12142           0.0000000000
     30762     10254  TIP3      H2             11.0447712922       18.4971136235       27.6779358414  W2        12142           0.0000000000
     30763     10255  TIP3      OH2             4.2452612922       18.6469036235       27.1194458414  W2        12146           0.0000000000
     30764     10255  TIP3      H1              3.9777212922       18.9331936235       27.9927558414  W2        12146           0.0000000000
     30765     10255  TIP3      H2              5.0165212922       18.1008236235       27.2716958414  W2        12146           0.0000000000
     30766     10256  TIP3      OH2            30.3992812922        8.8384536235       27.8423958414  W2        12177           0.0000000000
     30767     10256  TIP3      H1             31.1002712922        8.8611436235       28.4937958414  W2        12177           0.0000000000
     30768     10256  TIP3      H2             30.7015712922        8.2104236235       27.1863258414  W2        12177           0.0000000000
     30769     10257  TIP3      OH2            32.6220812922        9.7526436235       29.4406058414  W2        12185           0.0000000000
     30770     10257  TIP3      H1             33.2016312922        9.9026736235       30.1874958414  W2        12185           0.0000000000
     30771     10257  TIP3      H2             33.0360812922       10.2233836235       28.7172458414  W2        12185           0.0000000000
     30772     10258  TIP3      OH2            36.3209212922        1.5026836235       29.2535758414  W2        12189           0.0000000000
     30773     10258  TIP3      H1             35.4209912922        1.6415836235       29.5486358414  W2        12189           0.0000000000
     30774     10258  TIP3      H2             36.5727612922        2.3341436235       28.8517458414  W2        12189           0.0000000000
     30775     10259  TIP3      OH2            32.9224812922       18.5999836235       28.2930758414  W2        12196           0.0000000000
     30776     10259  TIP3      H1             33.2973212922       17.8555936235       27.8223358414  W2        12196           0.0000000000
     30777     10259  TIP3      H2             32.9268512922       18.3300436235       29.2114058414  W2        12196           0.0000000000
     30778     10260  TIP3      OH2            34.0993912922       10.7854736235       27.0703958414  W2        12203           0.0000000000
     30779     10260  TIP3      H1             34.1414712922       10.5628636235       26.1403958414  W2        12203           0.0000000000
     30780     10260  TIP3      H2             34.9486012922       11.1841836235       27.2603858414  W2        12203           0.0000000000
     30781     10261  TIP3      OH2            29.6721412922        4.6612936235       27.7407258414  W2        12204           0.0000000000
     30782     10261  TIP3      H1             29.4186212922        4.6804536235       28.6635358414  W2        12204           0.0000000000
     30783     10261  TIP3      H2             29.4153512922        3.7898336235       27.4393458414  W2        12204           0.0000000000
     30784     10262  TIP3      OH2            26.5544312922        5.1069436235       26.8417658414  W2        12211           0.0000000000
     30785     10262  TIP3      H1             26.1235012922        4.6619536235       27.5715058414  W2        12211           0.0000000000
     30786     10262  TIP3      H2             25.8363012922        5.4785736235       26.3295158414  W2        12211           0.0000000000
     30787     10263  TIP3      OH2            21.0709812922        5.5950936235       29.3176758414  W2        12213           0.0000000000
     30788     10263  TIP3      H1             21.5451512922        6.1860836235       28.7327658414  W2        12213           0.0000000000
     30789     10263  TIP3      H2             20.3536212922        6.1253836235       29.6646858414  W2        12213           0.0000000000
     30790     10264  TIP3      OH2            25.1726212922        7.8842336235       28.2242058414  W2        12219           0.0000000000
     30791     10264  TIP3      H1             24.6301312922        7.5046136235       27.5329658414  W2        12219           0.0000000000
     30792     10264  TIP3      H2             26.0061112922        8.0787036235       27.7956158414  W2        12219           0.0000000000
     30793     10265  TIP3      OH2            32.4055812922        5.2637936235       28.3592758414  W2        12227           0.0000000000
     30794     10265  TIP3      H1             31.4670012922        5.3753536235       28.2081558414  W2        12227           0.0000000000
     30795     10265  TIP3      H2             32.7027912922        6.1204836235       28.6658458414  W2        12227           0.0000000000
     30796     10266  TIP3      OH2            30.6333112922       13.9082336235       29.1854758414  W2        12231           0.0000000000
     30797     10266  TIP3      H1             30.3381512922       14.7350236235       29.5669558414  W2        12231           0.0000000000
     30798     10266  TIP3      H2             29.9303112922       13.2889236235       29.3816158414  W2        12231           0.0000000000
     30799     10267  TIP3      OH2            21.7624412922       10.1250336235       27.9211958414  W2        12238           0.0000000000
     30800     10267  TIP3      H1             22.3784312922       10.7517536235       28.3006758414  W2        12238           0.0000000000
     30801     10267  TIP3      H2             20.9007012922       10.4410136235       28.1928458414  W2        12238           0.0000000000
     30802     10268  TIP3      OH2            33.6965312922       14.1030936235       27.9999558414  W2        12243           0.0000000000
     30803     10268  TIP3      H1             34.0498412922       13.7230736235       28.8043058414  W2        12243           0.0000000000
     30804     10268  TIP3      H2             32.7478812922       14.0095736235       28.0868858414  W2        12243           0.0000000000
     30805     10269  TIP3      OH2            27.7873112922       15.2147036235       26.4469558414  W2        12248           0.0000000000
     30806     10269  TIP3      H1             28.0262912922       14.4665136235       25.8998458414  W2        12248           0.0000000000
     30807     10269  TIP3      H2             27.5184412922       14.8268736235       27.2797358414  W2        12248           0.0000000000
     30808     10270  TIP3      OH2            26.7243712922       14.7850836235       28.9032158414  W2        12249           0.0000000000
     30809     10270  TIP3      H1             26.8711712922       14.2650636235       29.6933058414  W2        12249           0.0000000000
     30810     10270  TIP3      H2             26.7215412922       15.6918436235       29.2098058414  W2        12249           0.0000000000
     30811     10271  TIP3      OH2            23.1774812922       12.0374136235       29.4137558414  W2        12250           0.0000000000
     30812     10271  TIP3      H1             22.4914112922       12.3896636235       29.9807258414  W2        12250           0.0000000000
     30813     10271  TIP3      H2             23.7002712922       12.8003736235       29.1671858414  W2        12250           0.0000000000
     30814     10272  TIP3      OH2            29.4620912922       16.4824436235       29.6526358414  W2        12253           0.0000000000
     30815     10272  TIP3      H1             28.6457012922       16.9794136235       29.7050658414  W2        12253           0.0000000000
     30816     10272  TIP3      H2             29.9917212922       16.9577936235       29.0125158414  W2        12253           0.0000000000
     30817     10273  TIP3      OH2            26.8004012922       17.5261636235       29.6343258414  W2        12257           0.0000000000
     30818     10273  TIP3      H1             26.9612712922       18.3259136235       29.1335858414  W2        12257           0.0000000000
     30819     10273  TIP3      H2             26.6031812922       17.8327636235       30.5193858414  W2        12257           0.0000000000
     30820     10274  TIP3      OH2            25.5348412922        4.2240836235       29.2500858414  W2        12258           0.0000000000
     30821     10274  TIP3      H1             25.4513212922        5.1123936235       29.5967258414  W2        12258           0.0000000000
     30822     10274  TIP3      H2             26.4248712922        3.9587536235       29.4817658414  W2        12258           0.0000000000
     30823     10275  TIP3      OH2            23.7933712922       14.6513036235       28.3105358414  W2        12261           0.0000000000
     30824     10275  TIP3      H1             24.3855212922       15.3507836235       28.5867758414  W2        12261           0.0000000000
     30825     10275  TIP3      H2             24.2526712922       14.2182536235       27.5909958414  W2        12261           0.0000000000
     30826     10276  TIP3      OH2            22.1092912922        7.3156036235       27.4264758414  W2        12262           0.0000000000
     30827     10276  TIP3      H1             22.0645512922        8.2549136235       27.6051758414  W2        12262           0.0000000000
     30828     10276  TIP3      H2             21.2216112922        7.0800936235       27.1566858414  W2        12262           0.0000000000
     30829     10277  TIP3      OH2            29.8254912922       17.0778436235       26.5855558414  W2        12268           0.0000000000
     30830     10277  TIP3      H1             29.1815912922       16.4467036235       26.9069258414  W2        12268           0.0000000000
     30831     10277  TIP3      H2             30.5873212922       16.5466436235       26.3539058414  W2        12268           0.0000000000
     30832     10278  TIP3      OH2            34.4297812922       16.8948336235       26.8193558414  W2        12270           0.0000000000
     30833     10278  TIP3      H1             34.7128212922       16.1003536235       27.2720458414  W2        12270           0.0000000000
     30834     10278  TIP3      H2             35.1695712922       17.1279336235       26.2584658414  W2        12270           0.0000000000
     30835     10279  TIP3      OH2            25.3845112922       12.8043236235       26.6768458414  W2        12272           0.0000000000
     30836     10279  TIP3      H1             25.4489212922       12.0102836235       27.2074858414  W2        12272           0.0000000000
     30837     10279  TIP3      H2             26.0374312922       12.6856036235       25.9870458414  W2        12272           0.0000000000
     30838     10280  TIP3      OH2            30.7368512922       13.8514936235       26.4126458414  W2        12274           0.0000000000
     30839     10280  TIP3      H1             30.4682612922       14.0317036235       27.3135358414  W2        12274           0.0000000000
     30840     10280  TIP3      H2             30.5304112922       12.9261136235       26.2812258414  W2        12274           0.0000000000
     30841     10281  TIP3      OH2            26.5338912922       10.7769436235       28.9826458414  W2        12277           0.0000000000
     30842     10281  TIP3      H1             26.0740912922       10.2927736235       29.6684958414  W2        12277           0.0000000000
     30843     10281  TIP3      H2             26.7887612922       10.1084836235       28.3466958414  W2        12277           0.0000000000
     30844     10282  TIP3      OH2            27.6049312922        9.0201236235       27.2449658414  W2        12279           0.0000000000
     30845     10282  TIP3      H1             27.4244312922        8.8652436235       26.3177958414  W2        12279           0.0000000000
     30846     10282  TIP3      H2             28.5549812922        9.1279936235       27.2897558414  W2        12279           0.0000000000
     30847     10283  TIP3      OH2            27.5021012922       19.7104936235       28.2463258414  W2        12294           0.0000000000
     30848     10283  TIP3      H1             28.4351712922       19.8683636235       28.3901658414  W2        12294           0.0000000000
     30849     10283  TIP3      H2             27.2379812922       20.3857936235       27.6214758414  W2        12294           0.0000000000
     30850     10284  TIP3      OH2            21.0705912922       14.3468736235       27.7291358414  W2        12295           0.0000000000
     30851     10284  TIP3      H1             21.9845112922       14.4257636235       28.0025258414  W2        12295           0.0000000000
     30852     10284  TIP3      H2             21.0779012922       13.6598336235       27.0626958414  W2        12295           0.0000000000
     30853     10285  TIP3      OH2            36.4648112922        7.4375036235       27.4312258414  W2        12300           0.0000000000
     30854     10285  TIP3      H1             36.5612512922        8.1042036235       26.7511958414  W2        12300           0.0000000000
     30855     10285  TIP3      H2             36.3247712922        6.6221336235       26.9497758414  W2        12300           0.0000000000
     30856     10286  TIP3      OH2            35.7121912922        4.8454836235       26.5487758414  W2        12304           0.0000000000
     30857     10286  TIP3      H1             36.3227712922        4.4741636235       27.1855958414  W2        12304           0.0000000000
     30858     10286  TIP3      H2             34.8753412922        4.4241736235       26.7447758414  W2        12304           0.0000000000
     30859     10287  TIP3      OH2            21.3821912922        1.7786036235       29.1967258414  W2        12330           0.0000000000
     30860     10287  TIP3      H1             21.8212612922        2.3896536235       28.6050758414  W2        12330           0.0000000000
     30861     10287  TIP3      H2             20.7484312922        2.3170136235       29.6707258414  W2        12330           0.0000000000
     30862     10288  TIP3      OH2            23.2431012922        3.6947536235       27.6391358414  W2        12335           0.0000000000
     30863     10288  TIP3      H1             23.7344412922        3.0649936235       27.1116858414  W2        12335           0.0000000000
     30864     10288  TIP3      H2             23.8667312922        3.9906936235       28.3022558414  W2        12335           0.0000000000
     30865     10289  TIP3      OH2            30.1474912922       18.9363136235       28.4918558414  W2        12337           0.0000000000
     30866     10289  TIP3      H1             31.0135112922       19.3030536235       28.3136758414  W2        12337           0.0000000000
     30867     10289  TIP3      H2             29.9007712922       18.4971136235       27.6779358414  W2        12337           0.0000000000
     30868     10290  TIP3      OH2            23.1012612922       18.6469036235       27.1194458414  W2        12340           0.0000000000
     30869     10290  TIP3      H1             22.8337212922       18.9331936235       27.9927558414  W2        12340           0.0000000000
     30870     10290  TIP3      H2             23.8725212922       18.1008236235       27.2716958414  W2        12340           0.0000000000
     30871     10291  TIP3      OH2           -26.1687187078       27.6944536235       27.8423958414  W2        12372           0.0000000000
     30872     10291  TIP3      H1            -25.4677287078       27.7171436235       28.4937958414  W2        12372           0.0000000000
     30873     10291  TIP3      H2            -25.8664287078       27.0664236235       27.1863258414  W2        12372           0.0000000000
     30874     10292  TIP3      OH2           -23.9459187078       28.6086436235       29.4406058414  W2        12381           0.0000000000
     30875     10292  TIP3      H1            -23.3663687078       28.7586736235       30.1874958414  W2        12381           0.0000000000
     30876     10292  TIP3      H2            -23.5319187078       29.0793836235       28.7172458414  W2        12381           0.0000000000
     30877     10293  TIP3      OH2           -20.2470787078       20.3586836235       29.2535758414  W2        12385           0.0000000000
     30878     10293  TIP3      H1            -21.1470087078       20.4975836235       29.5486358414  W2        12385           0.0000000000
     30879     10293  TIP3      H2            -19.9952387078       21.1901436235       28.8517458414  W2        12385           0.0000000000
     30880     10294  TIP3      OH2           -19.0579387078       34.7249236235       27.6299658414  W2        12387           0.0000000000
     30881     10294  TIP3      H1            -18.9845887078       35.6639436235       27.8004958414  W2        12387           0.0000000000
     30882     10294  TIP3      H2            -18.1524287078       34.4197836235       27.5736958414  W2        12387           0.0000000000
     30883     10295  TIP3      OH2           -22.4686087078       29.6414736235       27.0703958414  W2        12397           0.0000000000
     30884     10295  TIP3      H1            -22.4265287078       29.4188636235       26.1403958414  W2        12397           0.0000000000
     30885     10295  TIP3      H2            -21.6193987078       30.0401836235       27.2603858414  W2        12397           0.0000000000
     30886     10296  TIP3      OH2           -26.8958587078       23.5172936235       27.7407258414  W2        12398           0.0000000000
     30887     10296  TIP3      H1            -27.1493787078       23.5364536235       28.6635358414  W2        12398           0.0000000000
     30888     10296  TIP3      H2            -27.1526487078       22.6458336235       27.4393458414  W2        12398           0.0000000000
     30889     10297  TIP3      OH2           -30.0135687078       23.9629436235       26.8417658414  W2        12405           0.0000000000
     30890     10297  TIP3      H1            -30.4444987078       23.5179536235       27.5715058414  W2        12405           0.0000000000
     30891     10297  TIP3      H2            -30.7316987078       24.3345736235       26.3295158414  W2        12405           0.0000000000
     30892     10298  TIP3      OH2           -35.4970187078       24.4510936235       29.3176758414  W2        12407           0.0000000000
     30893     10298  TIP3      H1            -35.0228487078       25.0420836235       28.7327658414  W2        12407           0.0000000000
     30894     10298  TIP3      H2            -36.2143787078       24.9813836235       29.6646858414  W2        12407           0.0000000000
     30895     10299  TIP3      OH2           -31.3953787078       26.7402336235       28.2242058414  W2        12413           0.0000000000
     30896     10299  TIP3      H1            -31.9378687078       26.3606136235       27.5329658414  W2        12413           0.0000000000
     30897     10299  TIP3      H2            -30.5618887078       26.9347036235       27.7956158414  W2        12413           0.0000000000
     30898     10300  TIP3      OH2           -24.1624187078       24.1197936235       28.3592758414  W2        12420           0.0000000000
     30899     10300  TIP3      H1            -25.1009987078       24.2313536235       28.2081558414  W2        12420           0.0000000000
     30900     10300  TIP3      H2            -23.8652087078       24.9764836235       28.6658458414  W2        12420           0.0000000000
     30901     10301  TIP3      OH2           -25.9346887078       32.7642336235       29.1854758414  W2        12424           0.0000000000
     30902     10301  TIP3      H1            -26.2298487078       33.5910236235       29.5669558414  W2        12424           0.0000000000
     30903     10301  TIP3      H2            -26.6376887078       32.1449236235       29.3816158414  W2        12424           0.0000000000
     30904     10302  TIP3      OH2           -18.5591987078       26.1964736235       29.7146858414  W2        12428           0.0000000000
     30905     10302  TIP3      H1            -19.1135687078       25.8002736235       29.0424358414  W2        12428           0.0000000000
     30906     10302  TIP3      H2            -18.4588387078       27.1069936235       29.4370158414  W2        12428           0.0000000000
     30907     10303  TIP3      OH2           -34.8055587078       28.9810336235       27.9211958414  W2        12433           0.0000000000
     30908     10303  TIP3      H1            -34.1895687078       29.6077536235       28.3006758414  W2        12433           0.0000000000
     30909     10303  TIP3      H2            -35.6672987078       29.2970136235       28.1928458414  W2        12433           0.0000000000
     30910     10304  TIP3      OH2           -22.8714687078       32.9590936235       27.9999558414  W2        12438           0.0000000000
     30911     10304  TIP3      H1            -22.5181587078       32.5790736235       28.8043058414  W2        12438           0.0000000000
     30912     10304  TIP3      H2            -23.8201187078       32.8655736235       28.0868858414  W2        12438           0.0000000000
     30913     10305  TIP3      OH2           -28.7806887078       34.0707036235       26.4469558414  W2        12443           0.0000000000
     30914     10305  TIP3      H1            -28.5417087078       33.3225136235       25.8998458414  W2        12443           0.0000000000
     30915     10305  TIP3      H2            -29.0495587078       33.6828736235       27.2797358414  W2        12443           0.0000000000
     30916     10306  TIP3      OH2           -29.8436287078       33.6410836235       28.9032158414  W2        12444           0.0000000000
     30917     10306  TIP3      H1            -29.6968287078       33.1210636235       29.6933058414  W2        12444           0.0000000000
     30918     10306  TIP3      H2            -29.8464587078       34.5478436235       29.2098058414  W2        12444           0.0000000000
     30919     10307  TIP3      OH2           -33.3905187078       30.8934136235       29.4137558414  W2        12445           0.0000000000
     30920     10307  TIP3      H1            -34.0765887078       31.2456636235       29.9807258414  W2        12445           0.0000000000
     30921     10307  TIP3      H2            -32.8677287078       31.6563736235       29.1671858414  W2        12445           0.0000000000
     30922     10308  TIP3      OH2           -27.1059087078       35.3384436235       29.6526358414  W2        12448           0.0000000000
     30923     10308  TIP3      H1            -27.9222987078       35.8354136235       29.7050658414  W2        12448           0.0000000000
     30924     10308  TIP3      H2            -26.5762787078       35.8137936235       29.0125158414  W2        12448           0.0000000000
     30925     10309  TIP3      OH2           -29.7675987078       36.3821636235       29.6343258414  W2        12452           0.0000000000
     30926     10309  TIP3      H1            -29.6067287078       37.1819136235       29.1335858414  W2        12452           0.0000000000
     30927     10309  TIP3      H2            -29.9648187078       36.6887636235       30.5193858414  W2        12452           0.0000000000
     30928     10310  TIP3      OH2           -31.0331587078       23.0800836235       29.2500858414  W2        12453           0.0000000000
     30929     10310  TIP3      H1            -31.1166787078       23.9683936235       29.5967258414  W2        12453           0.0000000000
     30930     10310  TIP3      H2            -30.1431287078       22.8147536235       29.4817658414  W2        12453           0.0000000000
     30931     10311  TIP3      OH2           -32.7746287078       33.5073036235       28.3105358414  W2        12456           0.0000000000
     30932     10311  TIP3      H1            -32.1824787078       34.2067836235       28.5867758414  W2        12456           0.0000000000
     30933     10311  TIP3      H2            -32.3153287078       33.0742536235       27.5909958414  W2        12456           0.0000000000
     30934     10312  TIP3      OH2           -34.4587087078       26.1716036235       27.4264758414  W2        12457           0.0000000000
     30935     10312  TIP3      H1            -34.5034487078       27.1109136235       27.6051758414  W2        12457           0.0000000000
     30936     10312  TIP3      H2            -35.3463887078       25.9360936235       27.1566858414  W2        12457           0.0000000000
     30937     10313  TIP3      OH2           -26.7425087078       35.9338436235       26.5855558414  W2        12461           0.0000000000
     30938     10313  TIP3      H1            -27.3864087078       35.3027036235       26.9069258414  W2        12461           0.0000000000
     30939     10313  TIP3      H2            -25.9806787078       35.4026436235       26.3539058414  W2        12461           0.0000000000
     30940     10314  TIP3      OH2           -22.1382187078       35.7508336235       26.8193558414  W2        12463           0.0000000000
     30941     10314  TIP3      H1            -21.8551787078       34.9563536235       27.2720458414  W2        12463           0.0000000000
     30942     10314  TIP3      H2            -21.3984287078       35.9839336235       26.2584658414  W2        12463           0.0000000000
     30943     10315  TIP3      OH2           -31.1834887078       31.6603236235       26.6768458414  W2        12465           0.0000000000
     30944     10315  TIP3      H1            -31.1190787078       30.8662836235       27.2074858414  W2        12465           0.0000000000
     30945     10315  TIP3      H2            -30.5305687078       31.5416036235       25.9870458414  W2        12465           0.0000000000
     30946     10316  TIP3      OH2           -25.8311487078       32.7074936235       26.4126458414  W2        12467           0.0000000000
     30947     10316  TIP3      H1            -26.0997387078       32.8877036235       27.3135358414  W2        12467           0.0000000000
     30948     10316  TIP3      H2            -26.0375887078       31.7821136235       26.2812258414  W2        12467           0.0000000000
     30949     10317  TIP3      OH2           -30.0341087078       29.6329436235       28.9826458414  W2        12470           0.0000000000
     30950     10317  TIP3      H1            -30.4939087078       29.1487736235       29.6684958414  W2        12470           0.0000000000
     30951     10317  TIP3      H2            -29.7792387078       28.9644836235       28.3466958414  W2        12470           0.0000000000
     30952     10318  TIP3      OH2           -28.9630687078       27.8761236235       27.2449658414  W2        12472           0.0000000000
     30953     10318  TIP3      H1            -29.1435687078       27.7212436235       26.3177958414  W2        12472           0.0000000000
     30954     10318  TIP3      H2            -28.0130187078       27.9839936235       27.2897558414  W2        12472           0.0000000000
     30955     10319  TIP3      OH2           -19.5732387078       30.2305436235       26.6907758414  W2        12474           0.0000000000
     30956     10319  TIP3      H1            -19.8467587078       29.8060936235       25.8776058414  W2        12474           0.0000000000
     30957     10319  TIP3      H2            -19.5338287078       31.1619936235       26.4738158414  W2        12474           0.0000000000
     30958     10320  TIP3      OH2           -35.4974087078       33.2028736235       27.7291358414  W2        12488           0.0000000000
     30959     10320  TIP3      H1            -34.5834887078       33.2817636235       28.0025258414  W2        12488           0.0000000000
     30960     10320  TIP3      H2            -35.4900987078       32.5158336235       27.0626958414  W2        12488           0.0000000000
     30961     10321  TIP3      OH2           -18.4520887078       29.0539436235       28.8805158414  W2        12495           0.0000000000
     30962     10321  TIP3      H1            -18.9739787078       29.4103536235       28.1616058414  W2        12495           0.0000000000
     30963     10321  TIP3      H2            -18.4851687078       29.7287236235       29.5586058414  W2        12495           0.0000000000
     30964     10322  TIP3      OH2           -20.1031887078       26.2935036235       27.4312258414  W2        12496           0.0000000000
     30965     10322  TIP3      H1            -20.0067487078       26.9602036235       26.7511958414  W2        12496           0.0000000000
     30966     10322  TIP3      H2            -20.2432287078       25.4781336235       26.9497758414  W2        12496           0.0000000000
     30967     10323  TIP3      OH2           -20.8558087078       23.7014836235       26.5487758414  W2        12501           0.0000000000
     30968     10323  TIP3      H1            -20.2452287078       23.3301636235       27.1855958414  W2        12501           0.0000000000
     30969     10323  TIP3      H2            -21.6926587078       23.2801736235       26.7447758414  W2        12501           0.0000000000
     30970     10324  TIP3      OH2           -18.7431387078       22.5870636235       28.0909958414  W2        12511           0.0000000000
     30971     10324  TIP3      H1            -18.3308787078       21.8656336235       27.6157958414  W2        12511           0.0000000000
     30972     10324  TIP3      H2            -18.0614887078       23.2565236235       28.1494258414  W2        12511           0.0000000000
     30973     10325  TIP3      OH2           -35.1858087078       20.6346036235       29.1967258414  W2        12523           0.0000000000
     30974     10325  TIP3      H1            -34.7467387078       21.2456536235       28.6050758414  W2        12523           0.0000000000
     30975     10325  TIP3      H2            -35.8195687078       21.1730136235       29.6707258414  W2        12523           0.0000000000
     30976     10326  TIP3      OH2           -33.3248987078       22.5507536235       27.6391358414  W2        12528           0.0000000000
     30977     10326  TIP3      H1            -32.8335587078       21.9209936235       27.1116858414  W2        12528           0.0000000000
     30978     10326  TIP3      H2            -32.7012687078       22.8466936235       28.3022558414  W2        12528           0.0000000000
     30979     10327  TIP3      OH2            -7.3127187078       27.6944536235       27.8423958414  W2        12563           0.0000000000
     30980     10327  TIP3      H1             -6.6117287078       27.7171436235       28.4937958414  W2        12563           0.0000000000
     30981     10327  TIP3      H2             -7.0104287078       27.0664236235       27.1863258414  W2        12563           0.0000000000
     30982     10328  TIP3      OH2            -5.0899187078       28.6086436235       29.4406058414  W2        12572           0.0000000000
     30983     10328  TIP3      H1             -4.5103687078       28.7586736235       30.1874958414  W2        12572           0.0000000000
     30984     10328  TIP3      H2             -4.6759187078       29.0793836235       28.7172458414  W2        12572           0.0000000000
     30985     10329  TIP3      OH2            -1.3910787078       20.3586836235       29.2535758414  W2        12576           0.0000000000
     30986     10329  TIP3      H1             -2.2910087078       20.4975836235       29.5486358414  W2        12576           0.0000000000
     30987     10329  TIP3      H2             -1.1392387078       21.1901436235       28.8517458414  W2        12576           0.0000000000
     30988     10330  TIP3      OH2            -0.2019387078       34.7249236235       27.6299658414  W2        12578           0.0000000000
     30989     10330  TIP3      H1             -0.1285887078       35.6639436235       27.8004958414  W2        12578           0.0000000000
     30990     10330  TIP3      H2              0.7035712922       34.4197836235       27.5736958414  W2        12578           0.0000000000
     30991     10331  TIP3      OH2            -3.6126087078       29.6414736235       27.0703958414  W2        12588           0.0000000000
     30992     10331  TIP3      H1             -3.5705287078       29.4188636235       26.1403958414  W2        12588           0.0000000000
     30993     10331  TIP3      H2             -2.7633987078       30.0401836235       27.2603858414  W2        12588           0.0000000000
     30994     10332  TIP3      OH2            -8.0398587078       23.5172936235       27.7407258414  W2        12589           0.0000000000
     30995     10332  TIP3      H1             -8.2933787078       23.5364536235       28.6635358414  W2        12589           0.0000000000
     30996     10332  TIP3      H2             -8.2966487078       22.6458336235       27.4393458414  W2        12589           0.0000000000
     30997     10333  TIP3      OH2           -11.1575687078       23.9629436235       26.8417658414  W2        12596           0.0000000000
     30998     10333  TIP3      H1            -11.5884987078       23.5179536235       27.5715058414  W2        12596           0.0000000000
     30999     10333  TIP3      H2            -11.8756987078       24.3345736235       26.3295158414  W2        12596           0.0000000000
     31000     10334  TIP3      OH2           -16.6410187078       24.4510936235       29.3176758414  W2        12598           0.0000000000
     31001     10334  TIP3      H1            -16.1668487078       25.0420836235       28.7327658414  W2        12598           0.0000000000
     31002     10334  TIP3      H2            -17.3583787078       24.9813836235       29.6646858414  W2        12598           0.0000000000
     31003     10335  TIP3      OH2           -12.5393787078       26.7402336235       28.2242058414  W2        12604           0.0000000000
     31004     10335  TIP3      H1            -13.0818687078       26.3606136235       27.5329658414  W2        12604           0.0000000000
     31005     10335  TIP3      H2            -11.7058887078       26.9347036235       27.7956158414  W2        12604           0.0000000000
     31006     10336  TIP3      OH2            -5.3064187078       24.1197936235       28.3592758414  W2        12611           0.0000000000
     31007     10336  TIP3      H1             -6.2449987078       24.2313536235       28.2081558414  W2        12611           0.0000000000
     31008     10336  TIP3      H2             -5.0092087078       24.9764836235       28.6658458414  W2        12611           0.0000000000
     31009     10337  TIP3      OH2            -7.0786887078       32.7642336235       29.1854758414  W2        12615           0.0000000000
     31010     10337  TIP3      H1             -7.3738487078       33.5910236235       29.5669558414  W2        12615           0.0000000000
     31011     10337  TIP3      H2             -7.7816887078       32.1449236235       29.3816158414  W2        12615           0.0000000000
     31012     10338  TIP3      OH2             0.2968012922       26.1964736235       29.7146858414  W2        12619           0.0000000000
     31013     10338  TIP3      H1             -0.2575687078       25.8002736235       29.0424358414  W2        12619           0.0000000000
     31014     10338  TIP3      H2              0.3971612922       27.1069936235       29.4370158414  W2        12619           0.0000000000
     31015     10339  TIP3      OH2           -15.9495587078       28.9810336235       27.9211958414  W2        12624           0.0000000000
     31016     10339  TIP3      H1            -15.3335687078       29.6077536235       28.3006758414  W2        12624           0.0000000000
     31017     10339  TIP3      H2            -16.8112987078       29.2970136235       28.1928458414  W2        12624           0.0000000000
     31018     10340  TIP3      OH2            -4.0154687078       32.9590936235       27.9999558414  W2        12629           0.0000000000
     31019     10340  TIP3      H1             -3.6621587078       32.5790736235       28.8043058414  W2        12629           0.0000000000
     31020     10340  TIP3      H2             -4.9641187078       32.8655736235       28.0868858414  W2        12629           0.0000000000
     31021     10341  TIP3      OH2            -9.9246887078       34.0707036235       26.4469558414  W2        12634           0.0000000000
     31022     10341  TIP3      H1             -9.6857087078       33.3225136235       25.8998458414  W2        12634           0.0000000000
     31023     10341  TIP3      H2            -10.1935587078       33.6828736235       27.2797358414  W2        12634           0.0000000000
     31024     10342  TIP3      OH2           -10.9876287078       33.6410836235       28.9032158414  W2        12635           0.0000000000
     31025     10342  TIP3      H1            -10.8408287078       33.1210636235       29.6933058414  W2        12635           0.0000000000
     31026     10342  TIP3      H2            -10.9904587078       34.5478436235       29.2098058414  W2        12635           0.0000000000
     31027     10343  TIP3      OH2           -14.5345187078       30.8934136235       29.4137558414  W2        12636           0.0000000000
     31028     10343  TIP3      H1            -15.2205887078       31.2456636235       29.9807258414  W2        12636           0.0000000000
     31029     10343  TIP3      H2            -14.0117287078       31.6563736235       29.1671858414  W2        12636           0.0000000000
     31030     10344  TIP3      OH2            -8.2499087078       35.3384436235       29.6526358414  W2        12639           0.0000000000
     31031     10344  TIP3      H1             -9.0662987078       35.8354136235       29.7050658414  W2        12639           0.0000000000
     31032     10344  TIP3      H2             -7.7202787078       35.8137936235       29.0125158414  W2        12639           0.0000000000
     31033     10345  TIP3      OH2           -10.9115987078       36.3821636235       29.6343258414  W2        12643           0.0000000000
     31034     10345  TIP3      H1            -10.7507287078       37.1819136235       29.1335858414  W2        12643           0.0000000000
     31035     10345  TIP3      H2            -11.1088187078       36.6887636235       30.5193858414  W2        12643           0.0000000000
     31036     10346  TIP3      OH2           -12.1771587078       23.0800836235       29.2500858414  W2        12644           0.0000000000
     31037     10346  TIP3      H1            -12.2606787078       23.9683936235       29.5967258414  W2        12644           0.0000000000
     31038     10346  TIP3      H2            -11.2871287078       22.8147536235       29.4817658414  W2        12644           0.0000000000
     31039     10347  TIP3      OH2           -13.9186287078       33.5073036235       28.3105358414  W2        12647           0.0000000000
     31040     10347  TIP3      H1            -13.3264787078       34.2067836235       28.5867758414  W2        12647           0.0000000000
     31041     10347  TIP3      H2            -13.4593287078       33.0742536235       27.5909958414  W2        12647           0.0000000000
     31042     10348  TIP3      OH2           -15.6027087078       26.1716036235       27.4264758414  W2        12648           0.0000000000
     31043     10348  TIP3      H1            -15.6474487078       27.1109136235       27.6051758414  W2        12648           0.0000000000
     31044     10348  TIP3      H2            -16.4903887078       25.9360936235       27.1566858414  W2        12648           0.0000000000
     31045     10349  TIP3      OH2            -7.8865087078       35.9338436235       26.5855558414  W2        12652           0.0000000000
     31046     10349  TIP3      H1             -8.5304087078       35.3027036235       26.9069258414  W2        12652           0.0000000000
     31047     10349  TIP3      H2             -7.1246787078       35.4026436235       26.3539058414  W2        12652           0.0000000000
     31048     10350  TIP3      OH2            -3.2822187078       35.7508336235       26.8193558414  W2        12654           0.0000000000
     31049     10350  TIP3      H1             -2.9991787078       34.9563536235       27.2720458414  W2        12654           0.0000000000
     31050     10350  TIP3      H2             -2.5424287078       35.9839336235       26.2584658414  W2        12654           0.0000000000
     31051     10351  TIP3      OH2           -12.3274887078       31.6603236235       26.6768458414  W2        12656           0.0000000000
     31052     10351  TIP3      H1            -12.2630787078       30.8662836235       27.2074858414  W2        12656           0.0000000000
     31053     10351  TIP3      H2            -11.6745687078       31.5416036235       25.9870458414  W2        12656           0.0000000000
     31054     10352  TIP3      OH2            -6.9751487078       32.7074936235       26.4126458414  W2        12658           0.0000000000
     31055     10352  TIP3      H1             -7.2437387078       32.8877036235       27.3135358414  W2        12658           0.0000000000
     31056     10352  TIP3      H2             -7.1815887078       31.7821136235       26.2812258414  W2        12658           0.0000000000
     31057     10353  TIP3      OH2           -11.1781087078       29.6329436235       28.9826458414  W2        12661           0.0000000000
     31058     10353  TIP3      H1            -11.6379087078       29.1487736235       29.6684958414  W2        12661           0.0000000000
     31059     10353  TIP3      H2            -10.9232387078       28.9644836235       28.3466958414  W2        12661           0.0000000000
     31060     10354  TIP3      OH2           -10.1070687078       27.8761236235       27.2449658414  W2        12663           0.0000000000
     31061     10354  TIP3      H1            -10.2875687078       27.7212436235       26.3177958414  W2        12663           0.0000000000
     31062     10354  TIP3      H2             -9.1570187078       27.9839936235       27.2897558414  W2        12663           0.0000000000
     31063     10355  TIP3      OH2            -0.7172387078       30.2305436235       26.6907758414  W2        12665           0.0000000000
     31064     10355  TIP3      H1             -0.9907587078       29.8060936235       25.8776058414  W2        12665           0.0000000000
     31065     10355  TIP3      H2             -0.6778287078       31.1619936235       26.4738158414  W2        12665           0.0000000000
     31066     10356  TIP3      OH2           -16.6414087078       33.2028736235       27.7291358414  W2        12679           0.0000000000
     31067     10356  TIP3      H1            -15.7274887078       33.2817636235       28.0025258414  W2        12679           0.0000000000
     31068     10356  TIP3      H2            -16.6340987078       32.5158336235       27.0626958414  W2        12679           0.0000000000
     31069     10357  TIP3      OH2             0.4039112922       29.0539436235       28.8805158414  W2        12686           0.0000000000
     31070     10357  TIP3      H1             -0.1179787078       29.4103536235       28.1616058414  W2        12686           0.0000000000
     31071     10357  TIP3      H2              0.3708312922       29.7287236235       29.5586058414  W2        12686           0.0000000000
     31072     10358  TIP3      OH2            -1.2471887078       26.2935036235       27.4312258414  W2        12687           0.0000000000
     31073     10358  TIP3      H1             -1.1507487078       26.9602036235       26.7511958414  W2        12687           0.0000000000
     31074     10358  TIP3      H2             -1.3872287078       25.4781336235       26.9497758414  W2        12687           0.0000000000
     31075     10359  TIP3      OH2            -1.9998087078       23.7014836235       26.5487758414  W2        12692           0.0000000000
     31076     10359  TIP3      H1             -1.3892287078       23.3301636235       27.1855958414  W2        12692           0.0000000000
     31077     10359  TIP3      H2             -2.8366587078       23.2801736235       26.7447758414  W2        12692           0.0000000000
     31078     10360  TIP3      OH2             0.1128612922       22.5870636235       28.0909958414  W2        12702           0.0000000000
     31079     10360  TIP3      H1              0.5251212922       21.8656336235       27.6157958414  W2        12702           0.0000000000
     31080     10360  TIP3      H2              0.7945112922       23.2565236235       28.1494258414  W2        12702           0.0000000000
     31081     10361  TIP3      OH2           -16.3298087078       20.6346036235       29.1967258414  W2        12714           0.0000000000
     31082     10361  TIP3      H1            -15.8907387078       21.2456536235       28.6050758414  W2        12714           0.0000000000
     31083     10361  TIP3      H2            -16.9635687078       21.1730136235       29.6707258414  W2        12714           0.0000000000
     31084     10362  TIP3      OH2           -14.4688987078       22.5507536235       27.6391358414  W2        12719           0.0000000000
     31085     10362  TIP3      H1            -13.9775587078       21.9209936235       27.1116858414  W2        12719           0.0000000000
     31086     10362  TIP3      H2            -13.8452687078       22.8466936235       28.3022558414  W2        12719           0.0000000000
     31087     10363  TIP3      OH2            11.5432812922       27.6944536235       27.8423958414  W2        12754           0.0000000000
     31088     10363  TIP3      H1             12.2442712922       27.7171436235       28.4937958414  W2        12754           0.0000000000
     31089     10363  TIP3      H2             11.8455712922       27.0664236235       27.1863258414  W2        12754           0.0000000000
     31090     10364  TIP3      OH2            13.7660812922       28.6086436235       29.4406058414  W2        12763           0.0000000000
     31091     10364  TIP3      H1             14.3456312922       28.7586736235       30.1874958414  W2        12763           0.0000000000
     31092     10364  TIP3      H2             14.1800812922       29.0793836235       28.7172458414  W2        12763           0.0000000000
     31093     10365  TIP3      OH2            17.4649212922       20.3586836235       29.2535758414  W2        12767           0.0000000000
     31094     10365  TIP3      H1             16.5649912922       20.4975836235       29.5486358414  W2        12767           0.0000000000
     31095     10365  TIP3      H2             17.7167612922       21.1901436235       28.8517458414  W2        12767           0.0000000000
     31096     10366  TIP3      OH2            18.6540612922       34.7249236235       27.6299658414  W2        12769           0.0000000000
     31097     10366  TIP3      H1             18.7274112922       35.6639436235       27.8004958414  W2        12769           0.0000000000
     31098     10366  TIP3      H2             19.5595712922       34.4197836235       27.5736958414  W2        12769           0.0000000000
     31099     10367  TIP3      OH2            15.2433912922       29.6414736235       27.0703958414  W2        12779           0.0000000000
     31100     10367  TIP3      H1             15.2854712922       29.4188636235       26.1403958414  W2        12779           0.0000000000
     31101     10367  TIP3      H2             16.0926012922       30.0401836235       27.2603858414  W2        12779           0.0000000000
     31102     10368  TIP3      OH2            10.8161412922       23.5172936235       27.7407258414  W2        12780           0.0000000000
     31103     10368  TIP3      H1             10.5626212922       23.5364536235       28.6635358414  W2        12780           0.0000000000
     31104     10368  TIP3      H2             10.5593512922       22.6458336235       27.4393458414  W2        12780           0.0000000000
     31105     10369  TIP3      OH2             7.6984312922       23.9629436235       26.8417658414  W2        12787           0.0000000000
     31106     10369  TIP3      H1              7.2675012922       23.5179536235       27.5715058414  W2        12787           0.0000000000
     31107     10369  TIP3      H2              6.9803012922       24.3345736235       26.3295158414  W2        12787           0.0000000000
     31108     10370  TIP3      OH2             2.2149812922       24.4510936235       29.3176758414  W2        12789           0.0000000000
     31109     10370  TIP3      H1              2.6891512922       25.0420836235       28.7327658414  W2        12789           0.0000000000
     31110     10370  TIP3      H2              1.4976212922       24.9813836235       29.6646858414  W2        12789           0.0000000000
     31111     10371  TIP3      OH2             6.3166212922       26.7402336235       28.2242058414  W2        12795           0.0000000000
     31112     10371  TIP3      H1              5.7741312922       26.3606136235       27.5329658414  W2        12795           0.0000000000
     31113     10371  TIP3      H2              7.1501112922       26.9347036235       27.7956158414  W2        12795           0.0000000000
     31114     10372  TIP3      OH2            13.5495812922       24.1197936235       28.3592758414  W2        12802           0.0000000000
     31115     10372  TIP3      H1             12.6110012922       24.2313536235       28.2081558414  W2        12802           0.0000000000
     31116     10372  TIP3      H2             13.8467912922       24.9764836235       28.6658458414  W2        12802           0.0000000000
     31117     10373  TIP3      OH2            11.7773112922       32.7642336235       29.1854758414  W2        12806           0.0000000000
     31118     10373  TIP3      H1             11.4821512922       33.5910236235       29.5669558414  W2        12806           0.0000000000
     31119     10373  TIP3      H2             11.0743112922       32.1449236235       29.3816158414  W2        12806           0.0000000000
     31120     10374  TIP3      OH2            19.1528012922       26.1964736235       29.7146858414  W2        12810           0.0000000000
     31121     10374  TIP3      H1             18.5984312922       25.8002736235       29.0424358414  W2        12810           0.0000000000
     31122     10374  TIP3      H2             19.2531612922       27.1069936235       29.4370158414  W2        12810           0.0000000000
     31123     10375  TIP3      OH2             2.9064412922       28.9810336235       27.9211958414  W2        12815           0.0000000000
     31124     10375  TIP3      H1              3.5224312922       29.6077536235       28.3006758414  W2        12815           0.0000000000
     31125     10375  TIP3      H2              2.0447012922       29.2970136235       28.1928458414  W2        12815           0.0000000000
     31126     10376  TIP3      OH2            14.8405312922       32.9590936235       27.9999558414  W2        12820           0.0000000000
     31127     10376  TIP3      H1             15.1938412922       32.5790736235       28.8043058414  W2        12820           0.0000000000
     31128     10376  TIP3      H2             13.8918812922       32.8655736235       28.0868858414  W2        12820           0.0000000000
     31129     10377  TIP3      OH2             8.9313112922       34.0707036235       26.4469558414  W2        12825           0.0000000000
     31130     10377  TIP3      H1              9.1702912922       33.3225136235       25.8998458414  W2        12825           0.0000000000
     31131     10377  TIP3      H2              8.6624412922       33.6828736235       27.2797358414  W2        12825           0.0000000000
     31132     10378  TIP3      OH2             7.8683712922       33.6410836235       28.9032158414  W2        12826           0.0000000000
     31133     10378  TIP3      H1              8.0151712922       33.1210636235       29.6933058414  W2        12826           0.0000000000
     31134     10378  TIP3      H2              7.8655412922       34.5478436235       29.2098058414  W2        12826           0.0000000000
     31135     10379  TIP3      OH2             4.3214812922       30.8934136235       29.4137558414  W2        12827           0.0000000000
     31136     10379  TIP3      H1              3.6354112922       31.2456636235       29.9807258414  W2        12827           0.0000000000
     31137     10379  TIP3      H2              4.8442712922       31.6563736235       29.1671858414  W2        12827           0.0000000000
     31138     10380  TIP3      OH2            10.6060912922       35.3384436235       29.6526358414  W2        12830           0.0000000000
     31139     10380  TIP3      H1              9.7897012922       35.8354136235       29.7050658414  W2        12830           0.0000000000
     31140     10380  TIP3      H2             11.1357212922       35.8137936235       29.0125158414  W2        12830           0.0000000000
     31141     10381  TIP3      OH2             7.9444012922       36.3821636235       29.6343258414  W2        12834           0.0000000000
     31142     10381  TIP3      H1              8.1052712922       37.1819136235       29.1335858414  W2        12834           0.0000000000
     31143     10381  TIP3      H2              7.7471812922       36.6887636235       30.5193858414  W2        12834           0.0000000000
     31144     10382  TIP3      OH2             6.6788412922       23.0800836235       29.2500858414  W2        12835           0.0000000000
     31145     10382  TIP3      H1              6.5953212922       23.9683936235       29.5967258414  W2        12835           0.0000000000
     31146     10382  TIP3      H2              7.5688712922       22.8147536235       29.4817658414  W2        12835           0.0000000000
     31147     10383  TIP3      OH2             4.9373712922       33.5073036235       28.3105358414  W2        12838           0.0000000000
     31148     10383  TIP3      H1              5.5295212922       34.2067836235       28.5867758414  W2        12838           0.0000000000
     31149     10383  TIP3      H2              5.3966712922       33.0742536235       27.5909958414  W2        12838           0.0000000000
     31150     10384  TIP3      OH2             3.2532912922       26.1716036235       27.4264758414  W2        12839           0.0000000000
     31151     10384  TIP3      H1              3.2085512922       27.1109136235       27.6051758414  W2        12839           0.0000000000
     31152     10384  TIP3      H2              2.3656112922       25.9360936235       27.1566858414  W2        12839           0.0000000000
     31153     10385  TIP3      OH2            10.9694912922       35.9338436235       26.5855558414  W2        12843           0.0000000000
     31154     10385  TIP3      H1             10.3255912922       35.3027036235       26.9069258414  W2        12843           0.0000000000
     31155     10385  TIP3      H2             11.7313212922       35.4026436235       26.3539058414  W2        12843           0.0000000000
     31156     10386  TIP3      OH2            15.5737812922       35.7508336235       26.8193558414  W2        12845           0.0000000000
     31157     10386  TIP3      H1             15.8568212922       34.9563536235       27.2720458414  W2        12845           0.0000000000
     31158     10386  TIP3      H2             16.3135712922       35.9839336235       26.2584658414  W2        12845           0.0000000000
     31159     10387  TIP3      OH2             6.5285112922       31.6603236235       26.6768458414  W2        12847           0.0000000000
     31160     10387  TIP3      H1              6.5929212922       30.8662836235       27.2074858414  W2        12847           0.0000000000
     31161     10387  TIP3      H2              7.1814312922       31.5416036235       25.9870458414  W2        12847           0.0000000000
     31162     10388  TIP3      OH2            11.8808512922       32.7074936235       26.4126458414  W2        12849           0.0000000000
     31163     10388  TIP3      H1             11.6122612922       32.8877036235       27.3135358414  W2        12849           0.0000000000
     31164     10388  TIP3      H2             11.6744112922       31.7821136235       26.2812258414  W2        12849           0.0000000000
     31165     10389  TIP3      OH2             7.6778912922       29.6329436235       28.9826458414  W2        12852           0.0000000000
     31166     10389  TIP3      H1              7.2180912922       29.1487736235       29.6684958414  W2        12852           0.0000000000
     31167     10389  TIP3      H2              7.9327612922       28.9644836235       28.3466958414  W2        12852           0.0000000000
     31168     10390  TIP3      OH2             8.7489312922       27.8761236235       27.2449658414  W2        12854           0.0000000000
     31169     10390  TIP3      H1              8.5684312922       27.7212436235       26.3177958414  W2        12854           0.0000000000
     31170     10390  TIP3      H2              9.6989812922       27.9839936235       27.2897558414  W2        12854           0.0000000000
     31171     10391  TIP3      OH2            18.1387612922       30.2305436235       26.6907758414  W2        12856           0.0000000000
     31172     10391  TIP3      H1             17.8652412922       29.8060936235       25.8776058414  W2        12856           0.0000000000
     31173     10391  TIP3      H2             18.1781712922       31.1619936235       26.4738158414  W2        12856           0.0000000000
     31174     10392  TIP3      OH2             2.2145912922       33.2028736235       27.7291358414  W2        12870           0.0000000000
     31175     10392  TIP3      H1              3.1285112922       33.2817636235       28.0025258414  W2        12870           0.0000000000
     31176     10392  TIP3      H2              2.2219012922       32.5158336235       27.0626958414  W2        12870           0.0000000000
     31177     10393  TIP3      OH2            19.2599112922       29.0539436235       28.8805158414  W2        12877           0.0000000000
     31178     10393  TIP3      H1             18.7380212922       29.4103536235       28.1616058414  W2        12877           0.0000000000
     31179     10393  TIP3      H2             19.2268312922       29.7287236235       29.5586058414  W2        12877           0.0000000000
     31180     10394  TIP3      OH2            17.6088112922       26.2935036235       27.4312258414  W2        12878           0.0000000000
     31181     10394  TIP3      H1             17.7052512922       26.9602036235       26.7511958414  W2        12878           0.0000000000
     31182     10394  TIP3      H2             17.4687712922       25.4781336235       26.9497758414  W2        12878           0.0000000000
     31183     10395  TIP3      OH2            16.8561912922       23.7014836235       26.5487758414  W2        12883           0.0000000000
     31184     10395  TIP3      H1             17.4667712922       23.3301636235       27.1855958414  W2        12883           0.0000000000
     31185     10395  TIP3      H2             16.0193412922       23.2801736235       26.7447758414  W2        12883           0.0000000000
     31186     10396  TIP3      OH2            18.9688612922       22.5870636235       28.0909958414  W2        12893           0.0000000000
     31187     10396  TIP3      H1             19.3811212922       21.8656336235       27.6157958414  W2        12893           0.0000000000
     31188     10396  TIP3      H2             19.6505112922       23.2565236235       28.1494258414  W2        12893           0.0000000000
     31189     10397  TIP3      OH2             2.5261912922       20.6346036235       29.1967258414  W2        12905           0.0000000000
     31190     10397  TIP3      H1              2.9652612922       21.2456536235       28.6050758414  W2        12905           0.0000000000
     31191     10397  TIP3      H2              1.8924312922       21.1730136235       29.6707258414  W2        12905           0.0000000000
     31192     10398  TIP3      OH2             4.3871012922       22.5507536235       27.6391358414  W2        12910           0.0000000000
     31193     10398  TIP3      H1              4.8784412922       21.9209936235       27.1116858414  W2        12910           0.0000000000
     31194     10398  TIP3      H2              5.0107312922       22.8466936235       28.3022558414  W2        12910           0.0000000000
     31195     10399  TIP3      OH2            30.3992812922       27.6944536235       27.8423958414  W2        12943           0.0000000000
     31196     10399  TIP3      H1             31.1002712922       27.7171436235       28.4937958414  W2        12943           0.0000000000
     31197     10399  TIP3      H2             30.7015712922       27.0664236235       27.1863258414  W2        12943           0.0000000000
     31198     10400  TIP3      OH2            32.6220812922       28.6086436235       29.4406058414  W2        12951           0.0000000000
     31199     10400  TIP3      H1             33.2016312922       28.7586736235       30.1874958414  W2        12951           0.0000000000
     31200     10400  TIP3      H2             33.0360812922       29.0793836235       28.7172458414  W2        12951           0.0000000000
     31201     10401  TIP3      OH2            36.3209212922       20.3586836235       29.2535758414  W2        12955           0.0000000000
     31202     10401  TIP3      H1             35.4209912922       20.4975836235       29.5486358414  W2        12955           0.0000000000
     31203     10401  TIP3      H2             36.5727612922       21.1901436235       28.8517458414  W2        12955           0.0000000000
     31204     10402  TIP3      OH2            34.0993912922       29.6414736235       27.0703958414  W2        12965           0.0000000000
     31205     10402  TIP3      H1             34.1414712922       29.4188636235       26.1403958414  W2        12965           0.0000000000
     31206     10402  TIP3      H2             34.9486012922       30.0401836235       27.2603858414  W2        12965           0.0000000000
     31207     10403  TIP3      OH2            29.6721412922       23.5172936235       27.7407258414  W2        12966           0.0000000000
     31208     10403  TIP3      H1             29.4186212922       23.5364536235       28.6635358414  W2        12966           0.0000000000
     31209     10403  TIP3      H2             29.4153512922       22.6458336235       27.4393458414  W2        12966           0.0000000000
     31210     10404  TIP3      OH2            26.5544312922       23.9629436235       26.8417658414  W2        12973           0.0000000000
     31211     10404  TIP3      H1             26.1235012922       23.5179536235       27.5715058414  W2        12973           0.0000000000
     31212     10404  TIP3      H2             25.8363012922       24.3345736235       26.3295158414  W2        12973           0.0000000000
     31213     10405  TIP3      OH2            21.0709812922       24.4510936235       29.3176758414  W2        12975           0.0000000000
     31214     10405  TIP3      H1             21.5451512922       25.0420836235       28.7327658414  W2        12975           0.0000000000
     31215     10405  TIP3      H2             20.3536212922       24.9813836235       29.6646858414  W2        12975           0.0000000000
     31216     10406  TIP3      OH2            25.1726212922       26.7402336235       28.2242058414  W2        12981           0.0000000000
     31217     10406  TIP3      H1             24.6301312922       26.3606136235       27.5329658414  W2        12981           0.0000000000
     31218     10406  TIP3      H2             26.0061112922       26.9347036235       27.7956158414  W2        12981           0.0000000000
     31219     10407  TIP3      OH2            32.4055812922       24.1197936235       28.3592758414  W2        12988           0.0000000000
     31220     10407  TIP3      H1             31.4670012922       24.2313536235       28.2081558414  W2        12988           0.0000000000
     31221     10407  TIP3      H2             32.7027912922       24.9764836235       28.6658458414  W2        12988           0.0000000000
     31222     10408  TIP3      OH2            30.6333112922       32.7642336235       29.1854758414  W2        12992           0.0000000000
     31223     10408  TIP3      H1             30.3381512922       33.5910236235       29.5669558414  W2        12992           0.0000000000
     31224     10408  TIP3      H2             29.9303112922       32.1449236235       29.3816158414  W2        12992           0.0000000000
     31225     10409  TIP3      OH2            21.7624412922       28.9810336235       27.9211958414  W2        12999           0.0000000000
     31226     10409  TIP3      H1             22.3784312922       29.6077536235       28.3006758414  W2        12999           0.0000000000
     31227     10409  TIP3      H2             20.9007012922       29.2970136235       28.1928458414  W2        12999           0.0000000000
     31228     10410  TIP3      OH2            33.6965312922       32.9590936235       27.9999558414  W2        13004           0.0000000000
     31229     10410  TIP3      H1             34.0498412922       32.5790736235       28.8043058414  W2        13004           0.0000000000
     31230     10410  TIP3      H2             32.7478812922       32.8655736235       28.0868858414  W2        13004           0.0000000000
     31231     10411  TIP3      OH2            27.7873112922       34.0707036235       26.4469558414  W2        13009           0.0000000000
     31232     10411  TIP3      H1             28.0262912922       33.3225136235       25.8998458414  W2        13009           0.0000000000
     31233     10411  TIP3      H2             27.5184412922       33.6828736235       27.2797358414  W2        13009           0.0000000000
     31234     10412  TIP3      OH2            26.7243712922       33.6410836235       28.9032158414  W2        13010           0.0000000000
     31235     10412  TIP3      H1             26.8711712922       33.1210636235       29.6933058414  W2        13010           0.0000000000
     31236     10412  TIP3      H2             26.7215412922       34.5478436235       29.2098058414  W2        13010           0.0000000000
     31237     10413  TIP3      OH2            23.1774812922       30.8934136235       29.4137558414  W2        13011           0.0000000000
     31238     10413  TIP3      H1             22.4914112922       31.2456636235       29.9807258414  W2        13011           0.0000000000
     31239     10413  TIP3      H2             23.7002712922       31.6563736235       29.1671858414  W2        13011           0.0000000000
     31240     10414  TIP3      OH2            29.4620912922       35.3384436235       29.6526358414  W2        13014           0.0000000000
     31241     10414  TIP3      H1             28.6457012922       35.8354136235       29.7050658414  W2        13014           0.0000000000
     31242     10414  TIP3      H2             29.9917212922       35.8137936235       29.0125158414  W2        13014           0.0000000000
     31243     10415  TIP3      OH2            26.8004012922       36.3821636235       29.6343258414  W2        13018           0.0000000000
     31244     10415  TIP3      H1             26.9612712922       37.1819136235       29.1335858414  W2        13018           0.0000000000
     31245     10415  TIP3      H2             26.6031812922       36.6887636235       30.5193858414  W2        13018           0.0000000000
     31246     10416  TIP3      OH2            25.5348412922       23.0800836235       29.2500858414  W2        13019           0.0000000000
     31247     10416  TIP3      H1             25.4513212922       23.9683936235       29.5967258414  W2        13019           0.0000000000
     31248     10416  TIP3      H2             26.4248712922       22.8147536235       29.4817658414  W2        13019           0.0000000000
     31249     10417  TIP3      OH2            23.7933712922       33.5073036235       28.3105358414  W2        13022           0.0000000000
     31250     10417  TIP3      H1             24.3855212922       34.2067836235       28.5867758414  W2        13022           0.0000000000
     31251     10417  TIP3      H2             24.2526712922       33.0742536235       27.5909958414  W2        13022           0.0000000000
     31252     10418  TIP3      OH2            22.1092912922       26.1716036235       27.4264758414  W2        13023           0.0000000000
     31253     10418  TIP3      H1             22.0645512922       27.1109136235       27.6051758414  W2        13023           0.0000000000
     31254     10418  TIP3      H2             21.2216112922       25.9360936235       27.1566858414  W2        13023           0.0000000000
     31255     10419  TIP3      OH2            29.8254912922       35.9338436235       26.5855558414  W2        13027           0.0000000000
     31256     10419  TIP3      H1             29.1815912922       35.3027036235       26.9069258414  W2        13027           0.0000000000
     31257     10419  TIP3      H2             30.5873212922       35.4026436235       26.3539058414  W2        13027           0.0000000000
     31258     10420  TIP3      OH2            34.4297812922       35.7508336235       26.8193558414  W2        13029           0.0000000000
     31259     10420  TIP3      H1             34.7128212922       34.9563536235       27.2720458414  W2        13029           0.0000000000
     31260     10420  TIP3      H2             35.1695712922       35.9839336235       26.2584658414  W2        13029           0.0000000000
     31261     10421  TIP3      OH2            25.3845112922       31.6603236235       26.6768458414  W2        13031           0.0000000000
     31262     10421  TIP3      H1             25.4489212922       30.8662836235       27.2074858414  W2        13031           0.0000000000
     31263     10421  TIP3      H2             26.0374312922       31.5416036235       25.9870458414  W2        13031           0.0000000000
     31264     10422  TIP3      OH2            30.7368512922       32.7074936235       26.4126458414  W2        13033           0.0000000000
     31265     10422  TIP3      H1             30.4682612922       32.8877036235       27.3135358414  W2        13033           0.0000000000
     31266     10422  TIP3      H2             30.5304112922       31.7821136235       26.2812258414  W2        13033           0.0000000000
     31267     10423  TIP3      OH2            26.5338912922       29.6329436235       28.9826458414  W2        13036           0.0000000000
     31268     10423  TIP3      H1             26.0740912922       29.1487736235       29.6684958414  W2        13036           0.0000000000
     31269     10423  TIP3      H2             26.7887612922       28.9644836235       28.3466958414  W2        13036           0.0000000000
     31270     10424  TIP3      OH2            27.6049312922       27.8761236235       27.2449658414  W2        13038           0.0000000000
     31271     10424  TIP3      H1             27.4244312922       27.7212436235       26.3177958414  W2        13038           0.0000000000
     31272     10424  TIP3      H2             28.5549812922       27.9839936235       27.2897558414  W2        13038           0.0000000000
     31273     10425  TIP3      OH2            21.0705912922       33.2028736235       27.7291358414  W2        13053           0.0000000000
     31274     10425  TIP3      H1             21.9845112922       33.2817636235       28.0025258414  W2        13053           0.0000000000
     31275     10425  TIP3      H2             21.0779012922       32.5158336235       27.0626958414  W2        13053           0.0000000000
     31276     10426  TIP3      OH2            36.4648112922       26.2935036235       27.4312258414  W2        13057           0.0000000000
     31277     10426  TIP3      H1             36.5612512922       26.9602036235       26.7511958414  W2        13057           0.0000000000
     31278     10426  TIP3      H2             36.3247712922       25.4781336235       26.9497758414  W2        13057           0.0000000000
     31279     10427  TIP3      OH2            35.7121912922       23.7014836235       26.5487758414  W2        13061           0.0000000000
     31280     10427  TIP3      H1             36.3227712922       23.3301636235       27.1855958414  W2        13061           0.0000000000
     31281     10427  TIP3      H2             34.8753412922       23.2801736235       26.7447758414  W2        13061           0.0000000000
     31282     10428  TIP3      OH2            21.3821912922       20.6346036235       29.1967258414  W2        13078           0.0000000000
     31283     10428  TIP3      H1             21.8212612922       21.2456536235       28.6050758414  W2        13078           0.0000000000
     31284     10428  TIP3      H2             20.7484312922       21.1730136235       29.6707258414  W2        13078           0.0000000000
     31285     10429  TIP3      OH2            23.2431012922       22.5507536235       27.6391358414  W2        13083           0.0000000000
     31286     10429  TIP3      H1             23.7344412922       21.9209936235       27.1116858414  W2        13083           0.0000000000
     31287     10429  TIP3      H2             23.8667312922       22.8466936235       28.3022558414  W2        13083           0.0000000000
