* GENERATED BY CHARMM-GUI (HTTP://WWW.CHARMM-GUI.ORG) V3.7 ON FEB, 18. 2025. JOB
* GENERATES LIPID PACKING USING BIG SPHERES
*  DATE:     2/18/25     10:51:16      CREATED BY USER: charmm-gui
*
       192  EXT
         1         1  CHL1      POLO           34.9271589164       18.3864081740       12.0457554933  HEAD      1               0.0000000000
         2         2  CHL1      POLO            4.5623177627      -21.2668622348       11.9187122811  HEAD      2               0.0000000000
         3         3  CHL1      POLO          -33.8773855259       11.6323151853       12.0129747920  HEAD      3               0.0000000000
         4         4  CHL1      POLO          -27.6034297295       -9.7686077272       12.1293485644  HEAD      4               0.0000000000
         5         5  CHL1      POLO           -6.2126875166        7.0000565175       11.9678892083  HEAD      5               0.0000000000
         6         6  CHL1      POLO            4.3444243327       15.6440143657       11.9403329728  HEAD      6               0.0000000000
         7         7  CHL1      POLO          -24.6693800999       -2.2031880176       12.1108775988  HEAD      7               0.0000000000
         8         8  CHL1      POLO           22.8799638025       24.5421556720       12.0419122811  HEAD      8               0.0000000000
         9         9  CHL1      POLO           33.4829519418       -3.7850911345       11.9835087912  HEAD      9               0.0000000000
        10        10  CHL1      POLO           28.8855470056        3.2790734433       11.9343700854  HEAD      10              0.0000000000
        11        11  CHL1      POLO           -9.4671686501       36.1463621991       11.8918352600  HEAD      11              0.0000000000
        12        12  CHL1      POLO          -19.9937076022       27.4281154633       11.9133529595  HEAD      12              0.0000000000
        13        13  CHL1      POLO          -18.4256449187      -23.7766564421       12.0145352459  HEAD      13              0.0000000000
        14        14  CHL1      POLO            1.4030329845        7.8118619876       12.0111504155  HEAD      14              0.0000000000
        15        15  CHL1      POLO          -15.4093438392       20.9031066571       11.9699697348  HEAD      15              0.0000000000
        16        16  CHL1      POLO           25.7098483012       32.1848111377       12.0611271881  HEAD      16              0.0000000000
        17        17  CHL1      POLO            7.4847518827      -13.5951092658       12.0184080403  HEAD      17              0.0000000000
        18        18  CHL1      POLO           25.8734020531       -4.4511303130       11.9777700794  HEAD      18              0.0000000000
        19        19  CHL1      POLO            9.0588750355        8.6128035815       11.9194109565  HEAD      19              0.0000000000
        20        20  CHL1      POLO           16.7507314518        9.4662070958       12.0033862894  HEAD      20              0.0000000000
        21        21  CHL1      POLO          -29.2889980680        4.5530901597       12.0359958482  HEAD      21              0.0000000000
        22        22  CHL1      POLO           -6.2454579000      -29.7906436976       12.0439726085  HEAD      22              0.0000000000
        23        23  CHL1      POLO            9.0142015193      -27.9781860005       11.9324991861  HEAD      23              0.0000000000
        24        24  CHL1      POLO           22.9890646318      -12.3670243252       12.0306540295  HEAD      24              0.0000000000
        25        25  CHL1      POLO           13.7141337156        1.5589484651       11.9349978630  HEAD      25              0.0000000000
        26        26  CHL1      POLO          -29.3320104093      -32.1121217189       11.9492694848  HEAD      26              0.0000000000
        27        27  CHL1      POLO          -23.1759633646       19.8816268592       11.9099272044  HEAD      27              0.0000000000
        28        28  CHL1      POLO          -13.9101134290        6.4478308717       11.8855782286  HEAD      28              0.0000000000
        29        29  POPC      POLO          -23.0146135237      -16.6085798858       11.9925160557  HEAD      29              0.0000000000
        30        30  POPC      POLO          -24.8058898800       34.4360749540       11.8013940336  HEAD      30              0.0000000000
        31        31  POPC      POLO            2.9345580702       -6.7207545791       12.0872980665  HEAD      31              0.0000000000
        32        32  POPC      POLO           -3.2112847445       14.9127534591       11.9962774635  HEAD      32              0.0000000000
        33        33  SLPC      POLO           12.1043087630       16.2605716191       11.9843824295  HEAD      33              0.0000000000
        34        34  SLPC      POLO          -33.6263323848      -25.1969072731       11.9928706029  HEAD      34              0.0000000000
        35        35  SLPC      POLO          -15.3595066415      -16.1033206629       11.9719201553  HEAD      35              0.0000000000
        36        36  SLPC      POLO          -32.3942943529       33.9240615296       11.8404328260  HEAD      36              0.0000000000
        37        37  SLPC      POLO           19.9183986083      -19.9935512232       11.9499607135  HEAD      37              0.0000000000
        38        38  SLPC      POLO           32.1181355521      -26.1000349712       11.9049083566  HEAD      38              0.0000000000
        39        39  SLPC      POLO           -7.7454947711       21.7175038268       11.9634803343  HEAD      39              0.0000000000
        40        40  SLPC      POLO           27.3577784646       17.6690120707       12.0601777326  HEAD      40              0.0000000000
        41        41  SOPE      POLO           12.2228334777      -20.6259718807       12.0921806502  HEAD      41              0.0000000000
        42        42  SOPE      POLO           15.1459862149       23.8524764456       12.0812226824  HEAD      42              0.0000000000
        43        43  SOPE      POLO           -3.1372326029      -22.0054732302       12.0919033496  HEAD      43              0.0000000000
        44        44  SOPE      POLO           24.3506017153        9.9742475028       11.9150792127  HEAD      44              0.0000000000
        45        45  SOPE      POLO          -35.4063629369       26.0373916854       11.9966834244  HEAD      45              0.0000000000
        46        46  SOPE      POLO           -0.1339060460      -14.3015980099       12.0591710610  HEAD      46              0.0000000000
        47        47  SAPI      POLO          -10.8994796066       13.9924226337       12.1256190733  HEAD      47              0.0000000000
        48        48  SAPI      POLO            7.5148580432       23.0710618072       11.8598620169  HEAD      48              0.0000000000
        49        49  SAPC      POLO          -27.7334384382       26.7907079758       12.0388522310  HEAD      49              0.0000000000
        50        50  SAPC      POLO            5.8377239564      -35.5935952686       11.9602790289  HEAD      50              0.0000000000
        51        51  SAPC      POLO           10.6612290146       -5.8969710146       12.0830204522  HEAD      51              0.0000000000
        52        52  SAPC      POLO           33.4406891536       33.0451594814       12.0070687676  HEAD      52              0.0000000000
        53        53  SAPC      POLO           21.1932394473      -34.5500195610       11.8696461175  HEAD      53              0.0000000000
        54        54  SAPC      POLO            6.0919273782        0.8701874799       11.8568219480  HEAD      54              0.0000000000
        55        55  SAPC      POLO           10.5317928994       30.8447502044       11.9287024469  HEAD      55              0.0000000000
        56        56  SAPC      POLO           -1.8434479100      -36.4351134472       12.0236667779  HEAD      56              0.0000000000
        57        57  SAPE      POLO           27.5826689087      -19.0673744991       12.0243568363  HEAD      57              0.0000000000
        58        58  SAPE      POLO          -21.7004656818      -31.3312707217       11.9848606544  HEAD      58              0.0000000000
        59        59  SAPE      POLO           28.7993639149      -33.6521726720       11.9101517004  HEAD      59              0.0000000000
        60        60  SAPE      POLO          -19.8792874317       -9.0785450205       12.0209157810  HEAD      60              0.0000000000
        61        61  SAPE      POLO           30.6268918477      -11.4208310998       12.1057495996  HEAD      61              0.0000000000
        62        62  SAPE      POLO           19.6811501708       17.0349388841       11.9252921281  HEAD      62              0.0000000000
        63        63  SAPE      POLO           -9.3121167060       -0.5923787682       11.9933881595  HEAD      63              0.0000000000
        64        64  SAPE      POLO           16.8222089382      -27.4501041830       12.0711795500  HEAD      64              0.0000000000
        65        65  SAPE      POLO           -4.6398809719       29.3715513853       11.9287988755  HEAD      65              0.0000000000
        66        66  SAPE      POLO          -12.3184569724       28.4601637160       11.8817307055  HEAD      66              0.0000000000
        67        67  SAPE      POLO          -26.0073544980      -24.3032778420       11.8990580184  HEAD      67              0.0000000000
        68        68  SAPE      POLO           15.2800445456      -13.1400447734       11.9736990118  HEAD      68              0.0000000000
        69        69  SAPE      POLO           13.4343479503      -34.7688025504       12.0711904348  HEAD      69              0.0000000000
        70        70  SAPE      POLO           18.3531997288       -5.5026624128       12.0540667656  HEAD      70              0.0000000000
        71        71  SAPS      POLO          -16.9620650836       -1.1935973321       11.9940563997  HEAD      71              0.0000000000
        72        72  SAPS      POLO           31.9718397774       10.7572536754       11.9791743328  HEAD      72              0.0000000000
        73        73  SAPS      POLO           36.4640662400        3.8728105204       12.0012225618  HEAD      73              0.0000000000
        74        74  SAPS      POLO          -18.5017466055       13.1524929895       12.1027958831  HEAD      74              0.0000000000
        75        75  SAPS      POLO           30.4515508190       25.5231449730       11.9922982965  HEAD      75              0.0000000000
        76        76  SAPS      POLO          -17.1766111022       35.1306379274       12.1279082779  HEAD      76              0.0000000000
        77        77  SAPS      POLO            2.9250832479       30.1574306966       11.9978559264  HEAD      77              0.0000000000
        78        78  SAPS      POLO           -1.6029734220        0.1105500016       12.0712149862  HEAD      78              0.0000000000
        79        79  OSM       POLO          -21.6448234120        5.5835692893       11.9388393911  HEAD      79              0.0000000000
        80        80  OSM       POLO            1.3307591927      -28.8848234051       12.0532297153  HEAD      80              0.0000000000
        81        81  OSM       POLO          -30.8716143014       19.2287404507       12.0696307272  HEAD      81              0.0000000000
        82        82  OSM       POLO          -26.2649870152       12.3079324353       11.9404632823  HEAD      82              0.0000000000
        83        83  OSM       POLO           -4.6616978700       -7.4686620374       12.0978200621  HEAD      83              0.0000000000
        84        84  OSM       POLO          -12.3442075525       -8.3483094266       12.0747214954  HEAD      84              0.0000000000
        85        85  OSM       POLO           21.3661700039        2.3829229016       12.1446697774  HEAD      85              0.0000000000
        86        86  OSM       POLO           36.3831701396      -32.7894315916       12.0603342510  HEAD      86              0.0000000000
        87        87  OSM       POLO           -0.0432805715       22.3709634647       12.0909328023  HEAD      87              0.0000000000
        88        88  OSM       POLO           -7.7469226685      -15.1918361478       12.0388765903  HEAD      88              0.0000000000
        89        89  OSM       POLO          -35.2649097125      -10.6110664393       12.0094038949  HEAD      89              0.0000000000
        90        90  OSM       POLO           18.0910162213       31.4288242248       11.8903338784  HEAD      90              0.0000000000
        91        91  OSM       POLO          -13.9200724748      -30.5079651689       11.9662267957  HEAD      91              0.0000000000
        92        92  OSM       POLO          -10.6781564046      -22.9319180467       11.9872599002  HEAD      92              0.0000000000
        93        93  OSM       POLO           35.1780713972      -18.3975149293       12.0236462934  HEAD      93              0.0000000000
        94        94  OSM       POLO          -32.2716787298       -2.9360586540       12.0157124494  HEAD      94              0.0000000000
        95        95  OSM       POLO           24.3780456824      -26.6089743718       11.8995369261  HEAD      95              0.0000000000
        96        96  OSM       POLO          -30.5696509320      -17.4690461120       11.9217912590  HEAD      96              0.0000000000
        97        97  CHL1      POLO            3.4684576814       10.8801426614      -12.0128695521  HEAD      97              0.0000000000
        98        98  CHL1      POLO          -33.5190879081        6.5095241835      -12.0090276006  HEAD      98              0.0000000000
        99        99  CHL1      POLO            7.0989475720       26.1499582460      -11.8971490416  HEAD      99              0.0000000000
       100       100  CHL1      POLO           11.2806083961      -23.7644813780      -11.9459093785  HEAD      100             0.0000000000
       101       101  CHL1      POLO           30.4071435068       33.3492742347      -11.9652548168  HEAD      101             0.0000000000
       102       102  CHL1      POLO           25.9050045689      -18.8799546909      -11.9975051652  HEAD      102             0.0000000000
       103       103  CHL1      POLO           25.0333791634      -26.7120968952      -12.1371220612  HEAD      103             0.0000000000
       104       104  CHL1      POLO           21.1170193012       23.2505386031      -11.9982130847  HEAD      104             0.0000000000
       105       105  CHL1      POLO          -32.2109280606       14.2223254367      -11.8163099886  HEAD      105             0.0000000000
       106       106  CHL1      POLO          -12.6009787769       34.1697321166      -11.9717714601  HEAD      106             0.0000000000
       107       107  CHL1      POLO           14.9914479808       28.5741570205      -11.9798946180  HEAD      107             0.0000000000
       108       108  CHL1      POLO          -19.5544265502        3.3870624946      -12.0393610843  HEAD      108             0.0000000000
       109       109  CHL1      POLO           13.9847043077       -7.8884642255      -12.0058123700  HEAD      109             0.0000000000
       110       110  CHL1      POLO          -10.4783673181       13.7537336070      -11.9536629975  HEAD      110             0.0000000000
       111       111  CHL1      POLO           22.7196749750       31.0224401045      -12.0718215790  HEAD      111             0.0000000000
       112       112  CHL1      POLO          -13.1730621914       -1.8943221205      -12.0412321390  HEAD      112             0.0000000000
       113       113  CHL1      POLO          -28.1113457650      -16.3631590454      -11.9985747806  HEAD      113             0.0000000000
       114       114  CHL1      POLO          -16.5970088635       19.0830604761      -12.1085216454  HEAD      114             0.0000000000
       115       115  CHL1      POLO            6.6677285695      -10.3154144838      -11.9665399582  HEAD      115             0.0000000000
       116       116  CHL1      POLO           26.6952975467      -10.0732130669      -12.1230635472  HEAD      116             0.0000000000
       117       117  CHL1      POLO           10.2603814822      -31.7037798127      -12.0304416682  HEAD      117             0.0000000000
       118       118  CHL1      POLO           -9.4768617966      -23.4299093974      -11.9955149195  HEAD      118             0.0000000000
       119       119  CHL1      POLO            1.1081506606       31.3936598995      -11.9608181383  HEAD      119             0.0000000000
       120       120  CHL1      POLO          -35.2607926084      -19.6105245549      -12.1879584189  HEAD      120             0.0000000000
       121       121  CHL1      POLO           24.0897323662      -34.5252851781      -11.9835102814  HEAD      121             0.0000000000
       122       122  CHL1      POLO          -25.9111623582        8.8701338871      -12.0088273518  HEAD      122             0.0000000000
       123       123  CHL1      POLO           13.2571691601       20.8408699840      -12.0263430866  HEAD      123             0.0000000000
       124       124  CHL1      POLO           32.0866621382        4.5758956244      -12.0643793678  HEAD      124             0.0000000000
       125       125  POPC      POLO           -6.9039789374       -7.3182466408      -12.0288836323  HEAD      125             0.0000000000
       126       126  POPC      POLO           31.7134294749      -32.1815995192      -11.9239447203  HEAD      126             0.0000000000
       127       127  POPC      POLO           -0.8761750879       23.6761139621      -11.9780170834  HEAD      127             0.0000000000
       128       128  POPC      POLO          -21.5722721919      -12.6881842674      -12.0057975024  HEAD      128             0.0000000000
       129       129  SLPC      POLO           28.2844535803       -2.0512154325      -12.0977542723  HEAD      129             0.0000000000
       130       130  SLPC      POLO           -2.0848805919      -20.8755678211      -11.9505255398  HEAD      130             0.0000000000
       131       131  SLPC      POLO          -28.9953504112       29.7627676141      -12.0108397603  HEAD      131             0.0000000000
       132       132  SLPC      POLO           -0.8590951706      -12.8035264865      -11.9563998749  HEAD      132             0.0000000000
       133       133  SLPC      POLO           -2.6725112275       16.0103614516      -12.0578188449  HEAD      133             0.0000000000
       134       134  SLPC      POLO          -36.6637873942       27.6687317269      -12.0271123004  HEAD      134             0.0000000000
       135       135  SLPC      POLO           33.7563187898       -7.0948130820      -12.0028976456  HEAD      135             0.0000000000
       136       136  SLPC      POLO           21.0492402695       -4.9204737048      -11.9452865612  HEAD      136             0.0000000000
       137       137  SOPE      POLO          -27.8471759111       -6.9813812913      -12.0322466712  HEAD      137             0.0000000000
       138       138  SOPE      POLO          -18.4492973755      -34.2468704104      -12.1302568308  HEAD      138             0.0000000000
       139       139  SOPE      POLO           33.4296787398       12.2150854350      -12.0544316758  HEAD      139             0.0000000000
       140       140  SOPE      POLO          -14.9525957874       26.7397172587      -11.9706137230  HEAD      140             0.0000000000
       141       141  SOPE      POLO            3.8962312067      -26.3747630341      -11.8852781788  HEAD      141             0.0000000000
       142       142  SOPE      POLO           15.2749184033        0.4008385156      -12.0993938043  HEAD      142             0.0000000000
       143       143  SAPI      POLO          -20.5464329805       -4.6013685018      -11.9639773841  HEAD      143             0.0000000000
       144       144  SAPI      POLO          -22.2199208222      -21.2382330489      -12.0620887285  HEAD      144             0.0000000000
       145       145  SAPC      POLO          -34.2857180775      -30.1426293004      -11.9747460615  HEAD      145             0.0000000000
       146       146  SAPC      POLO            5.1704344797       18.5758143607      -12.0579625448  HEAD      146             0.0000000000
       147       147  SAPC      POLO           -4.8172380771      -36.6153453447      -11.9776466471  HEAD      147             0.0000000000
       148       148  SAPC      POLO            9.3704475836        5.5732564948      -11.9452326505  HEAD      148             0.0000000000
       149       149  SAPC      POLO           32.4301534826      -24.5200523110      -12.0702371343  HEAD      149             0.0000000000
       150       150  SAPC      POLO           16.4257412706       36.4450788487      -12.1020995944  HEAD      150             0.0000000000
       151       151  SAPC      POLO          -10.7132656881      -31.4638429343      -12.0185594309  HEAD      151             0.0000000000
       152       152  SAPC      POLO          -34.6037386843       -1.2485738253      -12.0788943157  HEAD      152             0.0000000000
       153       153  SAPE      POLO          -30.4806649982       21.9499283881      -11.9600788448  HEAD      153             0.0000000000
       154       154  SAPE      POLO           -5.6871596611        0.4724513881      -11.9094188033  HEAD      154             0.0000000000
       155       155  SAPE      POLO          -22.8496414933       24.2548725222      -11.9942910722  HEAD      155             0.0000000000
       156       156  SAPE      POLO           12.5545952659      -15.7523051030      -12.1746671938  HEAD      156             0.0000000000
       157       157  SAPE      POLO            0.4357534939       -4.8830696085      -12.0108516029  HEAD      157             0.0000000000
       158       158  SAPE      POLO           19.3898689548       15.5182915499      -12.0577616194  HEAD      158             0.0000000000
       159       159  SAPE      POLO          -24.1423554588       16.5985473561      -12.0725523365  HEAD      159             0.0000000000
       160       160  SAPE      POLO          -18.0962620230       11.1925819313      -11.9862971016  HEAD      160             0.0000000000
       161       161  SAPE      POLO           -6.7133501357       28.9847351027      -12.0711187439  HEAD      161             0.0000000000
       162       162  SAPE      POLO          -29.4652767895      -24.2421405576      -11.9762813218  HEAD      162             0.0000000000
       163       163  SAPE      POLO          -12.1614937007        5.9639074346      -12.0157725612  HEAD      163             0.0000000000
       164       164  SAPE      POLO            1.7080239175        3.1610797401      -11.9065729078  HEAD      164             0.0000000000
       165       165  SAPE      POLO           17.6723125095      -29.1346914555      -11.9709492745  HEAD      165             0.0000000000
       166       166  SAPE      POLO          -27.6148947735      -35.9431927196      -11.9184674290  HEAD      166             0.0000000000
       167       167  SAPS      POLO            8.9047794898       33.9854627176      -12.1051679853  HEAD      167             0.0000000000
       168       168  SAPS      POLO           25.6776328482       10.2977554588      -11.9849112130  HEAD      168             0.0000000000
       169       169  SAPS      POLO            7.8030469593       -2.2947927753      -12.1089891861  HEAD      169             0.0000000000
       170       170  SAPS      POLO           28.9040461181       25.6065771791      -11.9812079719  HEAD      170             0.0000000000
       171       171  SAPS      POLO           19.8126315877      -13.3622807747      -11.8027684653  HEAD      171             0.0000000000
       172       172  SAPS      POLO           32.3961493790      -15.0528544362      -11.8917270607  HEAD      172             0.0000000000
       173       173  SAPS      POLO          -35.3051201252       35.4721676548      -12.0761670228  HEAD      173             0.0000000000
       174       174  SAPS      POLO           35.0903410564       19.9615193458      -11.8726904373  HEAD      174             0.0000000000
       175       175  OSM       POLO          -14.3006766098       -9.8711253752      -12.0096280854  HEAD      175             0.0000000000
       176       176  OSM       POLO            2.7601284452      -34.2594563649      -12.0259418503  HEAD      176             0.0000000000
       177       177  OSM       POLO          -16.5663017111      -26.4501855276      -11.9826910358  HEAD      177             0.0000000000
       178       178  OSM       POLO           11.1552474870       13.3467867630      -11.9589852124  HEAD      178             0.0000000000
       179       179  OSM       POLO          -33.9790340381      -11.7037625720      -12.1262568586  HEAD      179             0.0000000000
       180       180  OSM       POLO           -8.1683650830      -15.3321756076      -11.9319932062  HEAD      180             0.0000000000
       181       181  OSM       POLO           18.6381133425      -21.2416330861      -11.9578085683  HEAD      181             0.0000000000
       182       182  OSM       POLO           17.0195623921        8.1390991083      -11.9490642662  HEAD      182             0.0000000000
       183       183  OSM       POLO           -4.5707096766        8.3395324089      -11.9606393031  HEAD      183             0.0000000000
       184       184  OSM       POLO          -21.1216839757       31.9553107193      -11.9026206028  HEAD      184             0.0000000000
       185       185  OSM       POLO           27.2795299801       17.9835717797      -11.9594502312  HEAD      185             0.0000000000
       186       186  OSM       POLO          -23.9841696032      -29.1067251813      -11.9834622923  HEAD      186             0.0000000000
       187       187  OSM       POLO            5.1687030361      -18.3273191771      -12.0097730101  HEAD      187             0.0000000000
       188       188  OSM       POLO          -15.3645262446      -17.9361576205      -11.9250689075  HEAD      188             0.0000000000
       189       189  OSM       POLO          -26.9321838924        0.9825552165      -12.0629179133  HEAD      189             0.0000000000
       190       190  OSM       POLO           -3.5027976808      -28.8438158130      -11.9783715641  HEAD      190             0.0000000000
       191       191  OSM       POLO           -8.6721405217       21.4193339072      -11.9039825509  HEAD      191             0.0000000000
       192       192  OSM       POLO           22.7243670649        3.0352453896      -12.1236901200  HEAD      192             0.0000000000
