* GENERATED BY CHARMM-GUI (HTTP://WWW.CHARMM-GUI.ORG) V3.7 ON FEB, 18. 2025. JOB
* GET A DIFFERENT CONFORMATION FOR LIPIDS PENETRATING PROTEIN / CHOL
*  DATE:     2/18/25     10:58: 1      CREATED BY USER: charmm-gui
*
     22650  EXT
         1         1  SAPS      N               0.9648058348        0.6144458892       21.6477480331  MEMB      1               0.0000000000
         2         1  SAPS      HN1             0.8582551584       -0.1446554504       22.3506080271  MEMB      1               0.0000000000
         3         1  SAPS      HN2             1.5092377840        0.1723504184       20.8797992509  MEMB      1               0.0000000000
         4         1  SAPS      HN3             1.4241781881        1.4744568767       22.0096292462  MEMB      1               0.0000000000
         5         1  SAPS      C12            -0.4002005829        0.8410373777       21.1738025843  MEMB      1               0.0000000000
         6         1  SAPS      H12A           -1.0959850405        1.0733768897       21.9664579060  MEMB      1               0.0000000000
         7         1  SAPS      C13            -0.4758739785        1.9037545224       20.0713964138  MEMB      1               0.0000000000
         8         1  SAPS      O13A            0.5528331557        2.3216391885       19.4933805467  MEMB      1               0.0000000000
         9         1  SAPS      O13B           -1.6357960930        2.3851972475       19.7366521604  MEMB      1               0.0000000000
        10         1  SAPS      C11            -0.9252983627       -0.4367247603       20.5668008851  MEMB      1               0.0000000000
        11         1  SAPS      H11A           -0.9302079047       -1.1533466133       21.4157709033  MEMB      1               0.0000000000
        12         1  SAPS      H11B           -0.3188352795       -0.9212805777       19.7719870432  MEMB      1               0.0000000000
        13         1  SAPS      P              -3.2281047542       -1.2564165214       19.4455719388  MEMB      1               0.0000000000
        14         1  SAPS      O13            -4.5389806369       -1.0228378122       20.0906957246  MEMB      1               0.0000000000
        15         1  SAPS      O14            -3.1544442275       -1.2155780717       17.9595870018  MEMB      1               0.0000000000
        16         1  SAPS      O12            -2.2053878359       -0.2659792156       19.9661319448  MEMB      1               0.0000000000
        17         1  SAPS      O11            -2.5862601071       -2.6524878496       19.8482328172  MEMB      1               0.0000000000
        18         1  SAPS      C1             -2.3091759369       -3.7013030927       18.9288159524  MEMB      1               0.0000000000
        19         1  SAPS      HA             -2.3505634790       -4.7070508500       19.3990067801  MEMB      1               0.0000000000
        20         1  SAPS      HB             -3.1113363050       -3.6611004471       18.1611939299  MEMB      1               0.0000000000
        21         1  SAPS      C2             -0.8479354137       -3.6368077867       18.2594709457  MEMB      1               0.0000000000
        22         1  SAPS      HS             -0.1544651384       -3.7798382971       19.1156029425  MEMB      1               0.0000000000
        23         1  SAPS      O21            -0.5190258573       -2.3293006979       17.7188917447  MEMB      1               0.0000000000
        24         1  SAPS      C21             0.7904024706       -2.2390119596       17.5047716141  MEMB      1               0.0000000000
        25         1  SAPS      O22             1.6724892261       -3.0125147943       17.7949304693  MEMB      1               0.0000000000
        26         1  SAPS      C22             1.0623976972       -0.8405619402       16.8312532967  MEMB      1               0.0000000000
        27         1  SAPS      H2R             0.2882801896       -0.5748869780       16.0799346346  MEMB      1               0.0000000000
        28         1  SAPS      H2S             1.0393580859       -0.0542775910       17.6158212879  MEMB      1               0.0000000000
        29         1  SAPS      C3             -0.6692912697       -4.6826744498       17.1962578887  MEMB      1               0.0000000000
        30         1  SAPS      HX             -1.1330924305       -5.5879622074       17.6430952347  MEMB      1               0.0000000000
        31         1  SAPS      HY              0.3877815634       -4.9427483423       16.9742679754  MEMB      1               0.0000000000
        32         1  SAPS      O31            -1.5224508409       -4.3872180150       16.0738593215  MEMB      1               0.0000000000
        33         1  SAPS      C31            -1.0251452013       -4.4982525746       14.8323863455  MEMB      1               0.0000000000
        34         1  SAPS      O32             0.1837601565       -4.6023894321       14.5820382476  MEMB      1               0.0000000000
        35         1  SAPS      C32            -2.1535891047       -4.4943116688       13.8135526259  MEMB      1               0.0000000000
        36         1  SAPS      H2X            -2.7719996572       -3.5747217521       13.8925678764  MEMB      1               0.0000000000
        37         1  SAPS      H2Y            -2.7809619648       -5.3835500287       14.0371128027  MEMB      1               0.0000000000
        38         1  SAPS      C23             2.4927635922       -0.8988901559       16.1424121232  MEMB      1               0.0000000000
        39         1  SAPS      H3R             2.5800716518       -1.8423853805       15.5623128897  MEMB      1               0.0000000000
        40         1  SAPS      H3S             3.2063252323       -0.8484382877       16.9924741232  MEMB      1               0.0000000000
        41         1  SAPS      C24             2.8265356263        0.3056694942       15.3044198139  MEMB      1               0.0000000000
        42         1  SAPS      H4R             3.7739286531        0.0170229520       14.8009815792  MEMB      1               0.0000000000
        43         1  SAPS      H4S             2.9984704242        1.2023642090       15.9374268955  MEMB      1               0.0000000000
        44         1  SAPS      C25             1.8524119794        0.6859435229       14.2142172814  MEMB      1               0.0000000000
        45         1  SAPS      H5R             1.0078919950        1.3397379571       14.4775397904  MEMB      1               0.0000000000
        46         1  SAPS      C26             1.7812514090       -0.0283102042       13.0497604372  MEMB      1               0.0000000000
        47         1  SAPS      H6R             1.0970626780        0.4055210543       12.3056661534  MEMB      1               0.0000000000
        48         1  SAPS      C27             2.5205446608       -1.2346154388       12.5964411651  MEMB      1               0.0000000000
        49         1  SAPS      H7R             3.2864297894       -1.4336914228       13.3762551068  MEMB      1               0.0000000000
        50         1  SAPS      H7S             2.9547572271       -0.9599459907       11.6113843221  MEMB      1               0.0000000000
        51         1  SAPS      C28             1.6516556322       -2.4550754895       12.3304723134  MEMB      1               0.0000000000
        52         1  SAPS      H8R             1.1936164306       -2.8501310357       13.2492383210  MEMB      1               0.0000000000
        53         1  SAPS      C29             1.4802319471       -3.1155716856       11.1548963711  MEMB      1               0.0000000000
        54         1  SAPS      H9R             0.8495247969       -4.0158378975       11.1133113201  MEMB      1               0.0000000000
        55         1  SAPS      C210            2.0791186927       -2.7887932494        9.8425832950  MEMB      1               0.0000000000
        56         1  SAPS      H10R            2.2545161606       -3.8045018025        9.4279837738  MEMB      1               0.0000000000
        57         1  SAPS      H10S            3.0436903660       -2.2416644123        9.7749663388  MEMB      1               0.0000000000
        58         1  SAPS      C211            1.1207557053       -2.1797525996        8.8506674375  MEMB      1               0.0000000000
        59         1  SAPS      H11R            0.1024715823       -2.5956575055        8.8616408522  MEMB      1               0.0000000000
        60         1  SAPS      C212            1.2890851146       -0.9769162234        8.2460161938  MEMB      1               0.0000000000
        61         1  SAPS      H12R            0.4982581304       -0.6778864378        7.5423297232  MEMB      1               0.0000000000
        62         1  SAPS      C213            2.4879956150       -0.0722719636        8.4498301760  MEMB      1               0.0000000000
        63         1  SAPS      H13R            3.0220447504       -0.2916192798        9.3990399680  MEMB      1               0.0000000000
        64         1  SAPS      H13S            2.0450446946        0.9146966888        8.7028291851  MEMB      1               0.0000000000
        65         1  SAPS      C214            3.3728173973       -0.1269796822        7.2254657358  MEMB      1               0.0000000000
        66         1  SAPS      H14R            4.0063289995       -1.0213590596        7.1319319910  MEMB      1               0.0000000000
        67         1  SAPS      C215            3.4514196363        0.6868918120        6.0581794360  MEMB      1               0.0000000000
        68         1  SAPS      H15R            4.1191643944        0.3730194786        5.2423360823  MEMB      1               0.0000000000
        69         1  SAPS      C216            2.5189026154        1.8653221452        5.8726297876  MEMB      1               0.0000000000
        70         1  SAPS      H16R            3.0273350340        2.8427983379        5.7299516886  MEMB      1               0.0000000000
        71         1  SAPS      H16S            1.8457215293        2.0333006635        6.7403464245  MEMB      1               0.0000000000
        72         1  SAPS      C217            1.5495880372        1.6724564107        4.6865025347  MEMB      1               0.0000000000
        73         1  SAPS      H17R            0.6459315177        2.2852684592        4.8918991554  MEMB      1               0.0000000000
        74         1  SAPS      H17S            1.1282810678        0.6484557580        4.5957052409  MEMB      1               0.0000000000
        75         1  SAPS      C218            2.1233210236        1.9961702130        3.3093474123  MEMB      1               0.0000000000
        76         1  SAPS      H18R            3.1076414188        1.4977340667        3.1789799924  MEMB      1               0.0000000000
        77         1  SAPS      H18S            2.1345926524        3.1068420422        3.2848096024  MEMB      1               0.0000000000
        78         1  SAPS      C219            1.2262372761        1.5970477666        2.1328259081  MEMB      1               0.0000000000
        79         1  SAPS      H19R            1.0054836596        0.5112412387        2.2141454881  MEMB      1               0.0000000000
        80         1  SAPS      H19S            1.8444188936        1.7211477801        1.2180731674  MEMB      1               0.0000000000
        81         1  SAPS      C220           -0.1490360371        2.3406734156        2.0770538985  MEMB      1               0.0000000000
        82         1  SAPS      H20R           -0.6361624898        2.1412934471        3.0554586890  MEMB      1               0.0000000000
        83         1  SAPS      H20S           -0.7789760075        1.8899776257        1.2805810169  MEMB      1               0.0000000000
        84         1  SAPS      H20T            0.0760608881        3.4267745677        2.0135189494  MEMB      1               0.0000000000
        85         1  SAPS      C33            -1.6405549578       -4.5826967230       12.2936264096  MEMB      1               0.0000000000
        86         1  SAPS      H3X            -1.0281487358       -5.5095752258       12.3068977795  MEMB      1               0.0000000000
        87         1  SAPS      H3Y            -1.0666097398       -3.6460383738       12.1275578212  MEMB      1               0.0000000000
        88         1  SAPS      C34            -2.7987719737       -4.5609775040       11.3359681693  MEMB      1               0.0000000000
        89         1  SAPS      H4X            -3.2180948039       -5.5781941856       11.1818286150  MEMB      1               0.0000000000
        90         1  SAPS      H4Y            -2.2366323459       -4.3412943578       10.4031993460  MEMB      1               0.0000000000
        91         1  SAPS      C35            -3.8522751460       -3.4438771131       11.3826932282  MEMB      1               0.0000000000
        92         1  SAPS      H5X            -4.3758369253       -3.6178906321       12.3470179165  MEMB      1               0.0000000000
        93         1  SAPS      H5Y            -4.5562316325       -3.5443814100       10.5290743267  MEMB      1               0.0000000000
        94         1  SAPS      C36            -3.1085575609       -2.0755297250       11.3933309391  MEMB      1               0.0000000000
        95         1  SAPS      H6X            -2.3509720297       -2.1271581897       10.5823318250  MEMB      1               0.0000000000
        96         1  SAPS      H6Y            -2.7062651546       -1.9257169494       12.4180446700  MEMB      1               0.0000000000
        97         1  SAPS      C37            -4.0691085037       -0.9011904621       11.1265954761  MEMB      1               0.0000000000
        98         1  SAPS      H7X            -4.5953031110       -0.6777903063       12.0792403780  MEMB      1               0.0000000000
        99         1  SAPS      H7Y            -4.7405629347       -0.9994031686       10.2469221712  MEMB      1               0.0000000000
       100         1  SAPS      C38            -3.3301816667        0.4827786508       10.7856481480  MEMB      1               0.0000000000
       101         1  SAPS      H8X            -2.8788401706        0.8052115189       11.7482740251  MEMB      1               0.0000000000
       102         1  SAPS      H8Y            -4.0379803693        1.3289023540       10.6536753405  MEMB      1               0.0000000000
       103         1  SAPS      C39            -2.2732822345        0.3546557425        9.6784241600  MEMB      1               0.0000000000
       104         1  SAPS      H9X            -2.7973093512       -0.1333002109        8.8289441741  MEMB      1               0.0000000000
       105         1  SAPS      H9Y            -1.5177538220       -0.4038456625        9.9753639974  MEMB      1               0.0000000000
       106         1  SAPS      C310           -1.5311779056        1.6199911002        9.1225724536  MEMB      1               0.0000000000
       107         1  SAPS      H10X           -0.8429910103        1.2188416169        8.3481061275  MEMB      1               0.0000000000
       108         1  SAPS      H10Y           -0.9583477447        2.0087385468        9.9915153622  MEMB      1               0.0000000000
       109         1  SAPS      C311           -2.5099392158        2.6479456934        8.5771856029  MEMB      1               0.0000000000
       110         1  SAPS      H11X           -1.8951594983        3.4521428282        8.1193276300  MEMB      1               0.0000000000
       111         1  SAPS      H11Y           -3.0810161762        2.9340063465        9.4862298105  MEMB      1               0.0000000000
       112         1  SAPS      C312           -3.5758620357        2.1644496961        7.4907268651  MEMB      1               0.0000000000
       113         1  SAPS      H12X           -4.3258212434        2.9745123355        7.3655044859  MEMB      1               0.0000000000
       114         1  SAPS      H12Y           -4.2223202451        1.4732989024        8.0727267999  MEMB      1               0.0000000000
       115         1  SAPS      C313           -2.9567073465        1.5696601837        6.2475335459  MEMB      1               0.0000000000
       116         1  SAPS      H13X           -1.9450295228        1.1450695795        6.4223244073  MEMB      1               0.0000000000
       117         1  SAPS      H13Y           -2.7861728457        2.5215579514        5.7006066101  MEMB      1               0.0000000000
       118         1  SAPS      C314           -3.8493406489        0.6485705918        5.3621938021  MEMB      1               0.0000000000
       119         1  SAPS      H14X           -4.8392009889        1.0971903196        5.1314599282  MEMB      1               0.0000000000
       120         1  SAPS      H14Y           -4.1557594529       -0.2736396279        5.9006692240  MEMB      1               0.0000000000
       121         1  SAPS      C315           -3.2430241164        0.2390085154        4.0001118351  MEMB      1               0.0000000000
       122         1  SAPS      H15X           -2.1965074354        0.5703649061        4.1713620122  MEMB      1               0.0000000000
       123         1  SAPS      H15Y           -3.8141856892        0.6726381669        3.1515467036  MEMB      1               0.0000000000
       124         1  SAPS      C316           -3.3569501041       -1.3013832852        3.8360548300  MEMB      1               0.0000000000
       125         1  SAPS      H16X           -4.4256430990       -1.5874743902        3.7342311061  MEMB      1               0.0000000000
       126         1  SAPS      H16Y           -2.9210230425       -1.8057953890        4.7247934781  MEMB      1               0.0000000000
       127         1  SAPS      C317           -2.7829898493       -1.7509641395        2.5691595201  MEMB      1               0.0000000000
       128         1  SAPS      H17X           -3.2209426292       -1.1873353729        1.7177825450  MEMB      1               0.0000000000
       129         1  SAPS      H17Y           -3.0981926764       -2.7949008450        2.3566412841  MEMB      1               0.0000000000
       130         1  SAPS      C318           -1.3008102434       -1.5170932094        2.4837618308  MEMB      1               0.0000000000
       131         1  SAPS      H18X           -0.7931363003       -2.2876912785        3.1024444329  MEMB      1               0.0000000000
       132         1  SAPS      H18Y           -0.9977708305       -0.5010844339        2.8157479341  MEMB      1               0.0000000000
       133         1  SAPS      H18Z           -0.7803411337       -1.7643086924        1.5338588490  MEMB      1               0.0000000000
       134         2  SAPC      N               6.7032526705        3.0722530928       20.3840738811  MEMB      2               0.0000000000
       135         2  SAPC      C12             7.1055967875        1.9297656899       19.4741998847  MEMB      2               0.0000000000
       136         2  SAPC      H12A            7.8721435128        1.3817581714       20.0019250494  MEMB      2               0.0000000000
       137         2  SAPC      H12B            7.4347621528        2.4508874091       18.5873614746  MEMB      2               0.0000000000
       138         2  SAPC      C13             7.8237072753        3.9827722481       20.5676117593  MEMB      2               0.0000000000
       139         2  SAPC      H13A            8.0955270336        4.2717738010       19.5631256989  MEMB      2               0.0000000000
       140         2  SAPC      H13B            7.5951247198        4.8993279446       21.0911341484  MEMB      2               0.0000000000
       141         2  SAPC      H13C            8.6870148963        3.5284995278       21.0310080424  MEMB      2               0.0000000000
       142         2  SAPC      C14             5.6192852405        3.8214866321       19.6794332985  MEMB      2               0.0000000000
       143         2  SAPC      H14A            4.8165395781        3.2319419998       19.2617772776  MEMB      2               0.0000000000
       144         2  SAPC      H14B            5.2396816922        4.5903984404       20.3359968843  MEMB      2               0.0000000000
       145         2  SAPC      H14C            6.0668993844        4.4079357797       18.8906881925  MEMB      2               0.0000000000
       146         2  SAPC      C15             6.2592467699        2.5982324653       21.7322815295  MEMB      2               0.0000000000
       147         2  SAPC      H15A            5.4844824991        1.8582804776       21.5958586731  MEMB      2               0.0000000000
       148         2  SAPC      H15B            7.0936227942        2.0550978823       22.1508761067  MEMB      2               0.0000000000
       149         2  SAPC      H15C            6.0696509982        3.4335885091       22.3900307107  MEMB      2               0.0000000000
       150         2  SAPC      C11             5.9181782553        0.9885013705       19.1788392124  MEMB      2               0.0000000000
       151         2  SAPC      H11A            6.0867512838        0.6046085224       18.1499901767  MEMB      2               0.0000000000
       152         2  SAPC      H11B            5.0168978725        1.5980107660       18.9540883563  MEMB      2               0.0000000000
       153         2  SAPC      P               5.4616843621       -1.4263560727       19.8113161281  MEMB      2               0.0000000000
       154         2  SAPC      O13             5.0470858352       -2.2167032698       20.9957680022  MEMB      2               0.0000000000
       155         2  SAPC      O14             4.5027451628       -1.4624026278       18.6985206555  MEMB      2               0.0000000000
       156         2  SAPC      O12             5.6623268567        0.1135906835       20.2386000790  MEMB      2               0.0000000000
       157         2  SAPC      O11             6.9080919470       -1.8290779399       19.2393556170  MEMB      2               0.0000000000
       158         2  SAPC      C1              7.9662427742       -1.9435471371       20.1483409259  MEMB      2               0.0000000000
       159         2  SAPC      HA              8.1832519091       -0.9669948242       20.6316355006  MEMB      2               0.0000000000
       160         2  SAPC      HB              7.7698738088       -2.7881216772       20.8429299927  MEMB      2               0.0000000000
       161         2  SAPC      C2              9.3396682273       -2.3406631380       19.4312378862  MEMB      2               0.0000000000
       162         2  SAPC      HS             10.1624230658       -2.1831015573       20.1610116152  MEMB      2               0.0000000000
       163         2  SAPC      O21             9.5114882781       -1.5411982021       18.2850352025  MEMB      2               0.0000000000
       164         2  SAPC      C21             9.7942058144       -0.1792870269       18.4084469519  MEMB      2               0.0000000000
       165         2  SAPC      O22            10.0335450291        0.3865197224       19.3890639546  MEMB      2               0.0000000000
       166         2  SAPC      C22             9.5471372786        0.4956697387       17.0485598792  MEMB      2               0.0000000000
       167         2  SAPC      H2R             9.3697048570       -0.3162876923       16.3112921808  MEMB      2               0.0000000000
       168         2  SAPC      H2S             8.7446249012        1.2619959466       17.1036882492  MEMB      2               0.0000000000
       169         2  SAPC      C3              9.3721755149       -3.8403336580       18.9103865770  MEMB      2               0.0000000000
       170         2  SAPC      HX              9.5964304678       -4.5835080223       19.7051964836  MEMB      2               0.0000000000
       171         2  SAPC      HY             10.1325571146       -3.9944988834       18.1151673397  MEMB      2               0.0000000000
       172         2  SAPC      O31             8.0477047230       -4.2356568428       18.3690625374  MEMB      2               0.0000000000
       173         2  SAPC      C31             7.8455019348       -3.9397435929       17.1116780287  MEMB      2               0.0000000000
       174         2  SAPC      O32             8.5585935909       -3.2146140673       16.4064288567  MEMB      2               0.0000000000
       175         2  SAPC      C32             6.4378348441       -4.3649531390       16.8350472314  MEMB      2               0.0000000000
       176         2  SAPC      H2X             5.8953737566       -4.8391143985       17.6807584187  MEMB      2               0.0000000000
       177         2  SAPC      H2Y             6.4002337488       -5.1038016818       16.0061868110  MEMB      2               0.0000000000
       178         2  SAPC      C23            10.9860613795        1.0468881851       16.7209366875  MEMB      2               0.0000000000
       179         2  SAPC      H3R            11.6743216748        0.1747548194       16.7194129775  MEMB      2               0.0000000000
       180         2  SAPC      H3S            11.3883924802        1.7140274974       17.5130070487  MEMB      2               0.0000000000
       181         2  SAPC      C24            11.0975019186        1.8966164868       15.3699498811  MEMB      2               0.0000000000
       182         2  SAPC      H4R            12.1758166069        2.1547149057       15.4402612391  MEMB      2               0.0000000000
       183         2  SAPC      H4S            10.5280730135        2.8480697543       15.4392920759  MEMB      2               0.0000000000
       184         2  SAPC      C25            10.9441348175        1.1446776798       14.0424836581  MEMB      2               0.0000000000
       185         2  SAPC      H5R            11.7916205488        0.4895631005       13.7922987285  MEMB      2               0.0000000000
       186         2  SAPC      C26            10.0468999330        1.5062640954       13.0763117441  MEMB      2               0.0000000000
       187         2  SAPC      H6R             9.9213870313        0.8269223423       12.2203085895  MEMB      2               0.0000000000
       188         2  SAPC      C27             9.0853962499        2.7092169753       13.1858290653  MEMB      2               0.0000000000
       189         2  SAPC      H7R             8.9205905212        3.0642978343       14.2255778067  MEMB      2               0.0000000000
       190         2  SAPC      H7S             8.1483194151        2.3066754871       12.7451836904  MEMB      2               0.0000000000
       191         2  SAPC      C28             9.6619244113        3.8714655375       12.3948500437  MEMB      2               0.0000000000
       192         2  SAPC      H8R             9.9123546771        4.7223241706       13.0454838998  MEMB      2               0.0000000000
       193         2  SAPC      C29             9.9052616646        3.9631061926       11.0697052945  MEMB      2               0.0000000000
       194         2  SAPC      H9R            10.3650526275        4.9242389016       10.7961807529  MEMB      2               0.0000000000
       195         2  SAPC      C210            9.6999817416        2.9237290421        9.9708828806  MEMB      2               0.0000000000
       196         2  SAPC      H10R            9.1052045696        2.0974901803       10.4157310787  MEMB      2               0.0000000000
       197         2  SAPC      H10S           10.6749032684        2.4656743433        9.6987886525  MEMB      2               0.0000000000
       198         2  SAPC      C211            8.9735963800        3.4937288419        8.8062257778  MEMB      2               0.0000000000
       199         2  SAPC      H11R            7.8904841007        3.6261644657        8.9452553166  MEMB      2               0.0000000000
       200         2  SAPC      C212            9.5084621573        3.7405331793        7.5605320920  MEMB      2               0.0000000000
       201         2  SAPC      H12R            8.7686581617        4.1295539635        6.8454422927  MEMB      2               0.0000000000
       202         2  SAPC      C213           10.9434124956        3.6259537729        6.9703193628  MEMB      2               0.0000000000
       203         2  SAPC      H13R           11.6062736658        4.0740295858        7.7411399494  MEMB      2               0.0000000000
       204         2  SAPC      H13S           11.1550838308        4.2124682757        6.0507999893  MEMB      2               0.0000000000
       205         2  SAPC      C214           11.2575289773        2.1625709374        6.7255999670  MEMB      2               0.0000000000
       206         2  SAPC      H14R           11.8705346037        1.6266450474        7.4651990240  MEMB      2               0.0000000000
       207         2  SAPC      C215           10.7743094092        1.4748159689        5.7424359313  MEMB      2               0.0000000000
       208         2  SAPC      H15R           10.9845818597        0.3981496627        5.6613505492  MEMB      2               0.0000000000
       209         2  SAPC      C216            9.8248070971        1.9804907227        4.6817530475  MEMB      2               0.0000000000
       210         2  SAPC      H16R           10.2832164909        2.6913823350        3.9614640722  MEMB      2               0.0000000000
       211         2  SAPC      H16S            8.9228578976        2.4389072521        5.1407326951  MEMB      2               0.0000000000
       212         2  SAPC      C217            9.4926153517        0.8403871072        3.6094608526  MEMB      2               0.0000000000
       213         2  SAPC      H17R            8.7120759484        0.1608816648        4.0136278376  MEMB      2               0.0000000000
       214         2  SAPC      H17S           10.3909353679        0.2709833867        3.2883333939  MEMB      2               0.0000000000
       215         2  SAPC      C218            8.9432199826        1.4242893267        2.2859838285  MEMB      2               0.0000000000
       216         2  SAPC      H18R            9.6170097731        2.1972339273        1.8583346495  MEMB      2               0.0000000000
       217         2  SAPC      H18S            8.0098344171        1.9640953555        2.5537919737  MEMB      2               0.0000000000
       218         2  SAPC      C219            8.4071007420        0.3675843353        1.3149418254  MEMB      2               0.0000000000
       219         2  SAPC      H19R            7.6359923890       -0.1917419172        1.8866647661  MEMB      2               0.0000000000
       220         2  SAPC      H19S            9.3091776929       -0.2620579961        1.1596051392  MEMB      2               0.0000000000
       221         2  SAPC      C220            7.8406990941        0.7994560879        0.0285368749  MEMB      2               0.0000000000
       222         2  SAPC      H20R            7.7270396299        0.1481078467       -0.8642942639  MEMB      2               0.0000000000
       223         2  SAPC      H20S            8.4458857806        1.6385153960       -0.3764943086  MEMB      2               0.0000000000
       224         2  SAPC      H20T            6.8057883389        1.1847818522        0.1502126545  MEMB      2               0.0000000000
       225         2  SAPC      C33             5.5154996532       -3.1751387007       16.4747029105  MEMB      2               0.0000000000
       226         2  SAPC      H3X             5.8914294509       -2.2205358733       16.9010023513  MEMB      2               0.0000000000
       227         2  SAPC      H3Y             4.4656306463       -3.3492770749       16.7937196212  MEMB      2               0.0000000000
       228         2  SAPC      C34             5.4858204363       -2.7612740309       14.9340929949  MEMB      2               0.0000000000
       229         2  SAPC      H4X             5.4167220524       -3.6021261985       14.2112420134  MEMB      2               0.0000000000
       230         2  SAPC      H4Y             6.4419774399       -2.3592527989       14.5360180632  MEMB      2               0.0000000000
       231         2  SAPC      C35             4.3158070427       -1.8184251033       14.6080969722  MEMB      2               0.0000000000
       232         2  SAPC      H5X             4.5096616488       -0.9590390145       15.2849992794  MEMB      2               0.0000000000
       233         2  SAPC      H5Y             3.3283735048       -2.1063544195       15.0280886442  MEMB      2               0.0000000000
       234         2  SAPC      C36             4.2564109699       -1.3158116098       13.1903487535  MEMB      2               0.0000000000
       235         2  SAPC      H6X             4.1417050397       -2.1087194542       12.4206339585  MEMB      2               0.0000000000
       236         2  SAPC      H6Y             5.2672667590       -0.8768160636       13.0497269416  MEMB      2               0.0000000000
       237         2  SAPC      C37             3.1733728904       -0.2790510400       12.9268332359  MEMB      2               0.0000000000
       238         2  SAPC      H7X             3.3163433699        0.4891084662       13.7166508349  MEMB      2               0.0000000000
       239         2  SAPC      H7Y             2.1205902928       -0.6198582369       13.0259330740  MEMB      2               0.0000000000
       240         2  SAPC      C38             3.4133064382        0.4523298432       11.6241558055  MEMB      2               0.0000000000
       241         2  SAPC      H8X             4.3533310649        1.0402345319       11.6951675909  MEMB      2               0.0000000000
       242         2  SAPC      H8Y             2.5687981106        1.1587464545       11.4754863756  MEMB      2               0.0000000000
       243         2  SAPC      C39             3.6239483693       -0.3114090127       10.3110245455  MEMB      2               0.0000000000
       244         2  SAPC      H9X             2.9166496092       -1.1667835953       10.3598506851  MEMB      2               0.0000000000
       245         2  SAPC      H9Y             4.5906369579       -0.8485420910       10.2046206333  MEMB      2               0.0000000000
       246         2  SAPC      C310            3.5847036208        0.5249168655        8.9950708500  MEMB      2               0.0000000000
       247         2  SAPC      H10X            3.9192764999        1.5653418340        9.1948154136  MEMB      2               0.0000000000
       248         2  SAPC      H10Y            2.5149574108        0.7154738478        8.7634401134  MEMB      2               0.0000000000
       249         2  SAPC      C311            4.1208436399       -0.0301542672        7.6417509555  MEMB      2               0.0000000000
       250         2  SAPC      H11X            3.6356762665        0.5346303927        6.8171583635  MEMB      2               0.0000000000
       251         2  SAPC      H11Y            3.6411841356       -1.0318498060        7.6125303304  MEMB      2               0.0000000000
       252         2  SAPC      C312            5.6387617121       -0.1648100431        7.5133960447  MEMB      2               0.0000000000
       253         2  SAPC      H12X            6.0329239242       -0.4681752563        8.5068382110  MEMB      2               0.0000000000
       254         2  SAPC      H12Y            6.0588631681        0.8323564748        7.2614145093  MEMB      2               0.0000000000
       255         2  SAPC      C313            6.0118970041       -1.1420570429        6.4071372418  MEMB      2               0.0000000000
       256         2  SAPC      H13X            5.9131378425       -0.6281554157        5.4271001925  MEMB      2               0.0000000000
       257         2  SAPC      H13Y            5.3814202908       -2.0542409424        6.3382851813  MEMB      2               0.0000000000
       258         2  SAPC      C314            7.4668252665       -1.6089079882        6.4574631176  MEMB      2               0.0000000000
       259         2  SAPC      H14X            7.6427251491       -2.1729143460        7.3983548744  MEMB      2               0.0000000000
       260         2  SAPC      H14Y            8.1485872166       -0.7326259763        6.4168271012  MEMB      2               0.0000000000
       261         2  SAPC      C315            7.7632491204       -2.5709582142        5.2763203046  MEMB      2               0.0000000000
       262         2  SAPC      H15X            7.6764580930       -1.9517473311        4.3579708084  MEMB      2               0.0000000000
       263         2  SAPC      H15Y            6.9931170421       -3.3626826024        5.1563620700  MEMB      2               0.0000000000
       264         2  SAPC      C316            9.0931972380       -3.2992998088        5.2907891424  MEMB      2               0.0000000000
       265         2  SAPC      H16X            9.2826853850       -3.9629105541        6.1614414339  MEMB      2               0.0000000000
       266         2  SAPC      H16Y            9.8881737386       -2.5331636708        5.1668178108  MEMB      2               0.0000000000
       267         2  SAPC      C317            9.3373451876       -4.1849206067        4.0697934027  MEMB      2               0.0000000000
       268         2  SAPC      H17X            8.6441944417       -3.8818268461        3.2561600113  MEMB      2               0.0000000000
       269         2  SAPC      H17Y            9.1078675416       -5.2106823174        4.4296174918  MEMB      2               0.0000000000
       270         2  SAPC      C318           10.7213518034       -4.1258364588        3.5467255506  MEMB      2               0.0000000000
       271         2  SAPC      H18X           10.7645161624       -4.8694784616        2.7224358793  MEMB      2               0.0000000000
       272         2  SAPC      H18Y           11.4752913410       -4.3334747760        4.3358913371  MEMB      2               0.0000000000
       273         2  SAPC      H18Z           10.9804431929       -3.1543901863        3.0739850506  MEMB      2               0.0000000000
       274         3  POPC      N               2.8318853977       -8.9860323761       19.1111596253  MEMB      3               0.0000000000
       275         3  POPC      C12             3.4715919042       -8.1056441780       20.1216876673  MEMB      3               0.0000000000
       276         3  POPC      H12A            4.3255268122       -8.6392559584       20.5121409153  MEMB      3               0.0000000000
       277         3  POPC      H12B            2.6786483528       -8.1116292383       20.8549029894  MEMB      3               0.0000000000
       278         3  POPC      C13             1.3033230774       -8.7641042456       19.0193633701  MEMB      3               0.0000000000
       279         3  POPC      H13A            0.8441229642       -9.5434069355       18.4292596414  MEMB      3               0.0000000000
       280         3  POPC      H13B            0.9699319067       -8.8717271130       20.0409639165  MEMB      3               0.0000000000
       281         3  POPC      H13C            1.1209630199       -7.7760986593       18.6231439093  MEMB      3               0.0000000000
       282         3  POPC      C14             3.4546866714       -8.7253627844       17.7889393118  MEMB      3               0.0000000000
       283         3  POPC      H14A            2.9808883010       -7.8775282918       17.3166137451  MEMB      3               0.0000000000
       284         3  POPC      H14B            4.4551332038       -8.3724369220       17.9913006045  MEMB      3               0.0000000000
       285         3  POPC      H14C            3.2273150990       -9.5851464744       17.1761795890  MEMB      3               0.0000000000
       286         3  POPC      C15             3.0710888219      -10.3977161363       19.5372360260  MEMB      3               0.0000000000
       287         3  POPC      H15A            2.7316291841      -10.5180638212       20.5554126896  MEMB      3               0.0000000000
       288         3  POPC      H15B            4.1171532695      -10.6505556019       19.6279093882  MEMB      3               0.0000000000
       289         3  POPC      H15C            2.5740330047      -11.0748038498       18.8583490607  MEMB      3               0.0000000000
       290         3  POPC      C11             3.7743123934       -6.6778754865       19.7012759388  MEMB      3               0.0000000000
       291         3  POPC      H11A            4.6916331472       -6.8287951061       19.0929446979  MEMB      3               0.0000000000
       292         3  POPC      H11B            4.2390960873       -6.1434810814       20.5572665295  MEMB      3               0.0000000000
       293         3  POPC      P               2.8257527502       -4.3843980793       18.7788359612  MEMB      3               0.0000000000
       294         3  POPC      O13             3.1155145798       -3.6170851803       20.0131025101  MEMB      3               0.0000000000
       295         3  POPC      O14             1.6061534205       -3.9730193439       18.0794580726  MEMB      3               0.0000000000
       296         3  POPC      O12             2.7486217952       -5.9138088883       19.0690433139  MEMB      3               0.0000000000
       297         3  POPC      O11             4.0772079180       -4.3832536957       17.7798982037  MEMB      3               0.0000000000
       298         3  POPC      C1              4.6771414715       -3.1995374993       17.2805651594  MEMB      3               0.0000000000
       299         3  POPC      HA              5.7157631274       -3.4854191579       17.0087974150  MEMB      3               0.0000000000
       300         3  POPC      HB              4.6388900979       -2.3579342384       18.0048315318  MEMB      3               0.0000000000
       301         3  POPC      C2              3.8942332854       -2.8115979574       15.9708441886  MEMB      3               0.0000000000
       302         3  POPC      HS              2.8942166159       -2.5154773295       16.3537285691  MEMB      3               0.0000000000
       303         3  POPC      O21             3.7412285231       -3.9971034457       15.1627044104  MEMB      3               0.0000000000
       304         3  POPC      C21             2.6523638757       -4.0437064594       14.4810413965  MEMB      3               0.0000000000
       305         3  POPC      O22             1.6738547140       -3.3042606396       14.5279485259  MEMB      3               0.0000000000
       306         3  POPC      C22             2.7722870586       -5.2932408188       13.5980306443  MEMB      3               0.0000000000
       307         3  POPC      H2R             2.7747144495       -6.1177743752       14.3426505487  MEMB      3               0.0000000000
       308         3  POPC      H2S             3.7284455609       -5.2802392365       13.0324222186  MEMB      3               0.0000000000
       309         3  POPC      C3              4.3964149494       -1.6621227163       15.1310924358  MEMB      3               0.0000000000
       310         3  POPC      HX              4.3106436199       -0.7740960309       15.7931897726  MEMB      3               0.0000000000
       311         3  POPC      HY              3.7607629755       -1.5809216198       14.2235274353  MEMB      3               0.0000000000
       312         3  POPC      O31             5.7235234869       -1.9295103557       14.8354530976  MEMB      3               0.0000000000
       313         3  POPC      C31             5.9948843209       -2.4582053271       13.6699748068  MEMB      3               0.0000000000
       314         3  POPC      O32             5.2015932973       -2.8946043407       12.8548796444  MEMB      3               0.0000000000
       315         3  POPC      C32             7.4815185993       -2.3841982572       13.5084063946  MEMB      3               0.0000000000
       316         3  POPC      H2X             7.9244728991       -1.6927197414       14.2567179282  MEMB      3               0.0000000000
       317         3  POPC      H2Y             7.7522691408       -2.0665270275       12.4787948664  MEMB      3               0.0000000000
       318         3  POPC      C23             1.5575058852       -5.5791107579       12.7179579315  MEMB      3               0.0000000000
       319         3  POPC      H3R             0.6510576463       -5.6364831469       13.3577867185  MEMB      3               0.0000000000
       320         3  POPC      H3S             1.6621881020       -6.5748202426       12.2363718118  MEMB      3               0.0000000000
       321         3  POPC      C24             1.3565018850       -4.5408763150       11.6121748066  MEMB      3               0.0000000000
       322         3  POPC      H4R             1.2336976556       -3.5342342805       12.0659502770  MEMB      3               0.0000000000
       323         3  POPC      H4S             0.4449267025       -4.9068887153       11.0931502448  MEMB      3               0.0000000000
       324         3  POPC      C25             2.3675816099       -4.5117917797       10.6083414808  MEMB      3               0.0000000000
       325         3  POPC      H5R             2.6446689677       -5.5463367347       10.3129426353  MEMB      3               0.0000000000
       326         3  POPC      H5S             3.2578080865       -4.0258272058       11.0618345830  MEMB      3               0.0000000000
       327         3  POPC      C26             1.9791639061       -3.6811922082        9.4935745244  MEMB      3               0.0000000000
       328         3  POPC      H6R             1.4320246598       -2.7758325569        9.8331090994  MEMB      3               0.0000000000
       329         3  POPC      H6S             1.3472529689       -4.2655613474        8.7910633837  MEMB      3               0.0000000000
       330         3  POPC      C27             3.1451993690       -3.2296385654        8.6020463752  MEMB      3               0.0000000000
       331         3  POPC      H7R             3.8062033254       -4.0624884635        8.2799354870  MEMB      3               0.0000000000
       332         3  POPC      H7S             3.6923983086       -2.4589959775        9.1860025186  MEMB      3               0.0000000000
       333         3  POPC      C28             2.6450792946       -2.6810576748        7.3048963379  MEMB      3               0.0000000000
       334         3  POPC      H8R             3.4380771211       -2.0593818332        6.8369273552  MEMB      3               0.0000000000
       335         3  POPC      H8S             1.8588320634       -1.9755141648        7.6489087341  MEMB      3               0.0000000000
       336         3  POPC      C29             2.0108464910       -3.6647916060        6.3358864275  MEMB      3               0.0000000000
       337         3  POPC      H91             1.1331742848       -4.1219810064        6.8161668045  MEMB      3               0.0000000000
       338         3  POPC      C210            2.4596626198       -3.8918234628        5.1167815243  MEMB      3               0.0000000000
       339         3  POPC      H101            1.9211932283       -4.6748720684        4.5628089932  MEMB      3               0.0000000000
       340         3  POPC      C211            3.6137967648       -3.2276988919        4.4230252779  MEMB      3               0.0000000000
       341         3  POPC      H11R            3.8742112886       -3.7894892303        3.5005845380  MEMB      3               0.0000000000
       342         3  POPC      H11S            4.5277903357       -3.1305204021        5.0471191391  MEMB      3               0.0000000000
       343         3  POPC      C212            3.2231763767       -1.8618596543        3.7986036676  MEMB      3               0.0000000000
       344         3  POPC      H12R            2.8188480544       -1.1121178152        4.5118547697  MEMB      3               0.0000000000
       345         3  POPC      H12S            2.4982242712       -2.1120410484        2.9947540005  MEMB      3               0.0000000000
       346         3  POPC      C213            4.4296793621       -1.1547575006        3.1493790790  MEMB      3               0.0000000000
       347         3  POPC      H13R            5.1959057291       -0.9735734665        3.9332103330  MEMB      3               0.0000000000
       348         3  POPC      H13S            4.0432479897       -0.1501071821        2.8742995963  MEMB      3               0.0000000000
       349         3  POPC      C214            5.1000673567       -1.7436468470        1.9000910508  MEMB      3               0.0000000000
       350         3  POPC      H14R            4.7226012698       -2.7472606448        1.6092306753  MEMB      3               0.0000000000
       351         3  POPC      H14S            6.1321175949       -1.7635568833        2.3109396317  MEMB      3               0.0000000000
       352         3  POPC      C215            5.0449835858       -0.8847461750        0.6523163080  MEMB      3               0.0000000000
       353         3  POPC      H15R            5.4479788367        0.1012752678        0.9680337451  MEMB      3               0.0000000000
       354         3  POPC      H15S            3.9945983982       -0.7349494855        0.3228121242  MEMB      3               0.0000000000
       355         3  POPC      C216            5.8567119121       -1.4047678061       -0.5515443630  MEMB      3               0.0000000000
       356         3  POPC      H16R            6.9193571165       -1.5488683524       -0.2611288093  MEMB      3               0.0000000000
       357         3  POPC      H16S            5.7528663431       -0.5722102714       -1.2798179498  MEMB      3               0.0000000000
       358         3  POPC      C217            5.2445914763       -2.6278700266       -1.2375782951  MEMB      3               0.0000000000
       359         3  POPC      H17R            4.1413258617       -2.5321571331       -1.1483329410  MEMB      3               0.0000000000
       360         3  POPC      H17S            5.6499001364       -3.5285015748       -0.7287465615  MEMB      3               0.0000000000
       361         3  POPC      C218            5.6675452628       -2.7766246250       -2.6926962363  MEMB      3               0.0000000000
       362         3  POPC      H18R            6.7751305327       -2.8632018698       -2.7016783504  MEMB      3               0.0000000000
       363         3  POPC      H18S            5.5001132667       -1.7887607198       -3.1727086253  MEMB      3               0.0000000000
       364         3  POPC      H18T            5.1810779522       -3.5431366930       -3.3331102316  MEMB      3               0.0000000000
       365         3  POPC      C33             8.1331683963       -3.8129298965       13.6686776230  MEMB      3               0.0000000000
       366         3  POPC      H3X             7.7778713111       -4.4502727146       14.5064601227  MEMB      3               0.0000000000
       367         3  POPC      H3Y             9.1691536843       -3.5759907016       13.9925845128  MEMB      3               0.0000000000
       368         3  POPC      C34             8.1300388868       -4.6134545572       12.3233398456  MEMB      3               0.0000000000
       369         3  POPC      H4X             9.1408711524       -5.0030128040       12.0767953850  MEMB      3               0.0000000000
       370         3  POPC      H4Y             7.7494704455       -4.0085680831       11.4726918152  MEMB      3               0.0000000000
       371         3  POPC      C35             7.2401369082       -5.8758475479       12.3200686739  MEMB      3               0.0000000000
       372         3  POPC      H5X             6.2488115558       -5.4421584222       12.5720786677  MEMB      3               0.0000000000
       373         3  POPC      H5Y             7.4241850284       -6.4937694035       13.2248449806  MEMB      3               0.0000000000
       374         3  POPC      C36             7.3099343230       -6.6424280017       10.9628958100  MEMB      3               0.0000000000
       375         3  POPC      H6X             7.9245116890       -7.5679629732       10.9621853595  MEMB      3               0.0000000000
       376         3  POPC      H6Y             7.8611661014       -6.0450920080       10.2054971905  MEMB      3               0.0000000000
       377         3  POPC      C37             5.8320461807       -7.0232788016       10.6454010192  MEMB      3               0.0000000000
       378         3  POPC      H7X             5.1466674453       -6.1488865603       10.6492916202  MEMB      3               0.0000000000
       379         3  POPC      H7Y             5.3852860464       -7.4765998956       11.5560196075  MEMB      3               0.0000000000
       380         3  POPC      C38             5.7287224387       -7.9497015311        9.4063125248  MEMB      3               0.0000000000
       381         3  POPC      H8X             5.3311593731       -8.9512720174        9.6767212862  MEMB      3               0.0000000000
       382         3  POPC      H8Y             6.7371413259       -8.1898782685        9.0066519541  MEMB      3               0.0000000000
       383         3  POPC      C39             4.9111250243       -7.3022865450        8.2470393224  MEMB      3               0.0000000000
       384         3  POPC      H9X             5.2718506140       -6.2652219373        8.0776427399  MEMB      3               0.0000000000
       385         3  POPC      H9Y             3.8486867877       -7.2323489717        8.5643006585  MEMB      3               0.0000000000
       386         3  POPC      C310            5.0231988366       -8.0914708654        6.9336224962  MEMB      3               0.0000000000
       387         3  POPC      H10X            4.5219317241       -9.0535122054        7.1734735969  MEMB      3               0.0000000000
       388         3  POPC      H10Y            6.1281755376       -8.1809249202        6.8605124593  MEMB      3               0.0000000000
       389         3  POPC      C311            4.3022142256       -7.4354034734        5.7242289137  MEMB      3               0.0000000000
       390         3  POPC      H11X            4.7546606339       -6.4841798247        5.3709769959  MEMB      3               0.0000000000
       391         3  POPC      H11Y            3.3143592702       -7.0961087245        6.1028352198  MEMB      3               0.0000000000
       392         3  POPC      C312            3.8485341887       -8.3817845600        4.5436012037  MEMB      3               0.0000000000
       393         3  POPC      H12X            3.1243358409       -9.0794218364        5.0159999165  MEMB      3               0.0000000000
       394         3  POPC      H12Y            4.6872004342       -9.0489745186        4.2506548282  MEMB      3               0.0000000000
       395         3  POPC      C313            3.2365406689       -7.6031906499        3.3510047728  MEMB      3               0.0000000000
       396         3  POPC      H13X            2.6295248234       -6.8077526653        3.8338409593  MEMB      3               0.0000000000
       397         3  POPC      H13Y            2.5096713024       -8.2872396270        2.8630923015  MEMB      3               0.0000000000
       398         3  POPC      C314            4.3263222081       -7.0414881743        2.4478747699  MEMB      3               0.0000000000
       399         3  POPC      H14X            5.1554145644       -7.7730246570        2.5564150755  MEMB      3               0.0000000000
       400         3  POPC      H14Y            4.7461673198       -6.0578203368        2.7486217105  MEMB      3               0.0000000000
       401         3  POPC      C315            3.9873122137       -7.0894015142        0.8990080046  MEMB      3               0.0000000000
       402         3  POPC      H15X            3.9216105648       -8.1365386224        0.5336200958  MEMB      3               0.0000000000
       403         3  POPC      H15Y            4.7483681344       -6.4682850580        0.3800397294  MEMB      3               0.0000000000
       404         3  POPC      C316            2.6492143829       -6.4913899015        0.6191603079  MEMB      3               0.0000000000
       405         3  POPC      H16X            2.5128718389       -5.4816726170        1.0621084073  MEMB      3               0.0000000000
       406         3  POPC      H16Y            1.8739343675       -7.2577149673        0.8336516931  MEMB      3               0.0000000000
       407         3  POPC      H16Z            2.6297024599       -6.5370757854       -0.4907291064  MEMB      3               0.0000000000
       408         4  CHL1      C3              1.6378941048        7.9977056882       17.3628400000  MEMB      4               0.0000000000
       409         4  CHL1      H3              1.6953688850        9.1032719728       17.4563700000  MEMB      4               0.0000000000
       410         4  CHL1      O3              1.1681718552        7.6260182918       18.6371600000  MEMB      4               0.0000000000
       411         4  CHL1      H3'             0.4274625844        8.2158397762       18.7955000000  MEMB      4               0.0000000000
       412         4  CHL1      C4              0.5443855283        7.8344512136       16.2257900000  MEMB      4               0.0000000000
       413         4  CHL1      H4A             0.0640766549        6.8352455279       16.2980200000  MEMB      4               0.0000000000
       414         4  CHL1      H4B            -0.2129827375        8.6189369597       16.4386100000  MEMB      4               0.0000000000
       415         4  CHL1      C5              1.1173946213        8.1540150932       14.8808800000  MEMB      4               0.0000000000
       416         4  CHL1      C6              0.5490086864        9.1351329229       14.1089700000  MEMB      4               0.0000000000
       417         4  CHL1      H6             -0.3764778221        9.6683432652       14.3719500000  MEMB      4               0.0000000000
       418         4  CHL1      C7              0.8570643586        9.2024818717       12.6333000000  MEMB      4               0.0000000000
       419         4  CHL1      H7A            -0.0420272742        9.2614680005       11.9833200000  MEMB      4               0.0000000000
       420         4  CHL1      H7B             1.4678913954       10.1075610669       12.4282200000  MEMB      4               0.0000000000
       421         4  CHL1      C8              1.6998493185        8.0403112277       12.1121300000  MEMB      4               0.0000000000
       422         4  CHL1      H8              0.9448140565        7.2451042782       11.9335300000  MEMB      4               0.0000000000
       423         4  CHL1      C14             2.3316716636        8.4411920543       10.7797600000  MEMB      4               0.0000000000
       424         4  CHL1      H14             3.0202767047        9.3123608966       10.8144600000  MEMB      4               0.0000000000
       425         4  CHL1      C15             1.3543267035        8.9835359120        9.7413800000  MEMB      4               0.0000000000
       426         4  CHL1      H15A            0.2956271397        8.6547975964        9.6679600000  MEMB      4               0.0000000000
       427         4  CHL1      H15B            1.2238291557       10.0411825791       10.0554900000  MEMB      4               0.0000000000
       428         4  CHL1      C16             2.0166152523        8.7226094458        8.3677900000  MEMB      4               0.0000000000
       429         4  CHL1      H16A            1.3502984538        8.1633116140        7.6767500000  MEMB      4               0.0000000000
       430         4  CHL1      H16B            2.2339745285        9.6275390052        7.7610300000  MEMB      4               0.0000000000
       431         4  CHL1      C17             3.2914304017        8.0000890585        8.6837600000  MEMB      4               0.0000000000
       432         4  CHL1      H17             4.0304947513        8.8293997021        8.7023400000  MEMB      4               0.0000000000
       433         4  CHL1      C13             3.1065414647        7.2991043710       10.0862900000  MEMB      4               0.0000000000
       434         4  CHL1      C18             2.2576693261        6.0255353049        9.9878200000  MEMB      4               0.0000000000
       435         4  CHL1      H18A            1.4525654877        6.1003170373        9.2259000000  MEMB      4               0.0000000000
       436         4  CHL1      H18B            2.8723371489        5.2936125838        9.4214300000  MEMB      4               0.0000000000
       437         4  CHL1      H18C            2.0607401037        5.4601886170       10.9237300000  MEMB      4               0.0000000000
       438         4  CHL1      C12             4.3585244075        7.1230482795       10.8819500000  MEMB      4               0.0000000000
       439         4  CHL1      H12A            4.9241459064        6.2232682373       10.5582300000  MEMB      4               0.0000000000
       440         4  CHL1      H12B            4.9925161191        8.0210075068       10.7206200000  MEMB      4               0.0000000000
       441         4  CHL1      C11             3.9815739258        6.8455611994       12.3892800000  MEMB      4               0.0000000000
       442         4  CHL1      H11A            3.6387898802        5.7901642925       12.3349700000  MEMB      4               0.0000000000
       443         4  CHL1      H11B            4.9121719292        6.8671468840       12.9957800000  MEMB      4               0.0000000000
       444         4  CHL1      C9              2.8715494871        7.7395689209       13.0534300000  MEMB      4               0.0000000000
       445         4  CHL1      H9              3.3630415072        8.7299706002       13.1623300000  MEMB      4               0.0000000000
       446         4  CHL1      C10             2.3755108214        7.3865394572       14.4889400000  MEMB      4               0.0000000000
       447         4  CHL1      C19             2.0446623493        5.8543799359       14.4869600000  MEMB      4               0.0000000000
       448         4  CHL1      H19A            1.5692311325        5.5022747814       13.5465800000  MEMB      4               0.0000000000
       449         4  CHL1      H19B            3.0154226358        5.3160389864       14.5331100000  MEMB      4               0.0000000000
       450         4  CHL1      H19C            1.5110703430        5.4564142695       15.3764600000  MEMB      4               0.0000000000
       451         4  CHL1      C1              3.4645859222        7.7053615813       15.6096500000  MEMB      4               0.0000000000
       452         4  CHL1      H1A             4.4190476276        7.2041627192       15.3411100000  MEMB      4               0.0000000000
       453         4  CHL1      H1B             3.7110104021        8.7875729211       15.6588100000  MEMB      4               0.0000000000
       454         4  CHL1      C2              3.0127152908        7.3664700113       16.9858700000  MEMB      4               0.0000000000
       455         4  CHL1      H2A             3.7663287528        7.6432947191       17.7538200000  MEMB      4               0.0000000000
       456         4  CHL1      H2B             2.8451728540        6.2725814380       17.0842100000  MEMB      4               0.0000000000
       457         4  CHL1      C20             3.6280667284        7.0990180499        7.4875300000  MEMB      4               0.0000000000
       458         4  CHL1      H20             2.7181300287        6.4683171472        7.3950800000  MEMB      4               0.0000000000
       459         4  CHL1      C21             4.9035692783        6.1714228357        7.6905800000  MEMB      4               0.0000000000
       460         4  CHL1      H21A            5.8589750586        6.4812711224        7.2156800000  MEMB      4               0.0000000000
       461         4  CHL1      H21B            4.5401867038        5.1625559525        7.3999400000  MEMB      4               0.0000000000
       462         4  CHL1      H21C            5.2365031721        6.1594678331        8.7504600000  MEMB      4               0.0000000000
       463         4  CHL1      C22             3.7240394337        7.8716765872        6.1104000000  MEMB      4               0.0000000000
       464         4  CHL1      H22A            2.9261872154        8.6176458825        5.9072100000  MEMB      4               0.0000000000
       465         4  CHL1      H22B            4.7470570535        8.3022927457        6.1584600000  MEMB      4               0.0000000000
       466         4  CHL1      C23             3.6694695420        6.8377406106        4.9863800000  MEMB      4               0.0000000000
       467         4  CHL1      H23A            4.3827034237        6.0200872500        5.2252400000  MEMB      4               0.0000000000
       468         4  CHL1      H23B            2.6455239171        6.4156942191        4.8985500000  MEMB      4               0.0000000000
       469         4  CHL1      C24             4.2134691860        7.4105948517        3.6773400000  MEMB      4               0.0000000000
       470         4  CHL1      H24A            3.6649178490        8.3678687551        3.5467400000  MEMB      4               0.0000000000
       471         4  CHL1      H24B            5.2958763280        7.6448946432        3.7657300000  MEMB      4               0.0000000000
       472         4  CHL1      C25             4.0928969589        6.5737208956        2.3493500000  MEMB      4               0.0000000000
       473         4  CHL1      H25             4.2049345587        7.1822933504        1.4266200000  MEMB      4               0.0000000000
       474         4  CHL1      C26             5.1368166450        5.4562674215        2.2053000000  MEMB      4               0.0000000000
       475         4  CHL1      H26A            6.1333141034        5.8994202637        2.4172400000  MEMB      4               0.0000000000
       476         4  CHL1      H26B            4.9584246641        4.6790291566        2.9788700000  MEMB      4               0.0000000000
       477         4  CHL1      H26C            5.1584603190        4.8729281602        1.2600100000  MEMB      4               0.0000000000
       478         4  CHL1      C27             2.6555559875        5.9882960785        2.0742500000  MEMB      4               0.0000000000
       479         4  CHL1      H27A            1.9354801673        6.8246796387        1.9466600000  MEMB      4               0.0000000000
       480         4  CHL1      H27B            2.5594834112        5.3432147341        1.1748200000  MEMB      4               0.0000000000
       481         4  CHL1      H27C            2.3060345281        5.2805360608        2.8560600000  MEMB      4               0.0000000000
       482         5  OSM       N              -5.5393543173       -7.5899394723       22.8507945004  MEMB      5               0.0000000000
       483         5  OSM       C15            -6.0997925901       -8.5679442964       23.8862485472  MEMB      5               0.0000000000
       484         5  OSM       H15A           -6.1178669036       -9.5259487989       23.3879508645  MEMB      5               0.0000000000
       485         5  OSM       H15B           -7.1143931734       -8.3325174123       24.1718354001  MEMB      5               0.0000000000
       486         5  OSM       H15C           -5.4184668128       -8.6277766648       24.7220807569  MEMB      5               0.0000000000
       487         5  OSM       C14            -6.4915522870       -7.6879852329       21.7541780751  MEMB      5               0.0000000000
       488         5  OSM       H14A           -7.4209555400       -7.3862986024       22.2141719806  MEMB      5               0.0000000000
       489         5  OSM       H14B           -6.4114670608       -8.6923889880       21.3653858271  MEMB      5               0.0000000000
       490         5  OSM       H14C           -6.2505467134       -6.9401271888       21.0132161397  MEMB      5               0.0000000000
       491         5  OSM       C13            -5.5706310178       -6.2136344418       23.4555923248  MEMB      5               0.0000000000
       492         5  OSM       H13A           -6.4226857426       -6.1403781634       24.1151651108  MEMB      5               0.0000000000
       493         5  OSM       H13B           -5.5770374725       -5.4356286407       22.7065489728  MEMB      5               0.0000000000
       494         5  OSM       H13C           -4.7319470886       -6.1017034744       24.1267710386  MEMB      5               0.0000000000
       495         5  OSM       C12            -4.1367282074       -7.9385216399       22.4125918477  MEMB      5               0.0000000000
       496         5  OSM       H12A           -4.1895328225       -8.8683192961       21.8657024978  MEMB      5               0.0000000000
       497         5  OSM       H12B           -3.5345441400       -7.9405570424       23.3091240392  MEMB      5               0.0000000000
       498         5  OSM       C11            -3.4075865019       -6.9583811812       21.4735169504  MEMB      5               0.0000000000
       499         5  OSM       H11A           -2.4183994203       -7.4118325624       21.2494369283  MEMB      5               0.0000000000
       500         5  OSM       H11B           -3.2593498893       -5.9998900260       22.0154040083  MEMB      5               0.0000000000
       501         5  OSM       P              -3.9316679500       -7.4897940291       18.9966400001  MEMB      5               0.0000000000
       502         5  OSM       O13            -2.6940829562       -7.0251296835       18.3305561065  MEMB      5               0.0000000000
       503         5  OSM       O14            -4.0496864242       -8.9192223256       19.3303534743  MEMB      5               0.0000000000
       504         5  OSM       O11            -5.2397527054       -7.1058833166       18.1851223714  MEMB      5               0.0000000000
       505         5  OSM       O12            -4.1178415955       -6.6588468688       20.3244058041  MEMB      5               0.0000000000
       506         5  OSM       C1S            -5.7545795814       -5.8569951830       17.7414223339  MEMB      5               0.0000000000
       507         5  OSM       H1S            -5.0675860589       -5.0189813268       17.9865624750  MEMB      5               0.0000000000
       508         5  OSM       H1T            -6.6380022536       -5.6686318286       18.3882644605  MEMB      5               0.0000000000
       509         5  OSM       NF             -6.4722119107       -4.7274182723       15.6442930005  MEMB      5               0.0000000000
       510         5  OSM       HNF            -7.4233384090       -4.4978609186       15.4527965066  MEMB      5               0.0000000000
       511         5  OSM       C2S            -6.1147609507       -6.0299528685       16.2285013059  MEMB      5               0.0000000000
       512         5  OSM       H2S            -5.2246773132       -6.4045641128       15.6791939018  MEMB      5               0.0000000000
       513         5  OSM       C3S            -7.3264520612       -7.0088330755       16.0136626703  MEMB      5               0.0000000000
       514         5  OSM       H3S            -8.1955888623       -6.6589890774       16.6107646689  MEMB      5               0.0000000000
       515         5  OSM       O3             -7.0765079581       -8.3259120097       16.4461047245  MEMB      5               0.0000000000
       516         5  OSM       HO3            -6.1955492923       -8.4300358140       16.8130787703  MEMB      5               0.0000000000
       517         5  OSM       C4S            -7.6607408097       -7.0155493609       14.5204660306  MEMB      5               0.0000000000
       518         5  OSM       H4S            -8.3208346360       -6.1950962010       14.2024520711  MEMB      5               0.0000000000
       519         5  OSM       C5S            -7.1864871082       -7.9309667499       13.6751503045  MEMB      5               0.0000000000
       520         5  OSM       H5S            -6.7751581166       -8.8796344499       14.0504347842  MEMB      5               0.0000000000
       521         5  OSM       C6S            -7.4482798918       -7.9108917543       12.2243724718  MEMB      5               0.0000000000
       522         5  OSM       H6S            -8.3455228093       -7.2749871013       12.0665702741  MEMB      5               0.0000000000
       523         5  OSM       H6T            -7.6698833968       -8.9711989520       11.9774677026  MEMB      5               0.0000000000
       524         5  OSM       C7S            -6.2850828492       -7.4266736218       11.3066000715  MEMB      5               0.0000000000
       525         5  OSM       H7S            -5.4518739332       -8.1283513959       11.5250774957  MEMB      5               0.0000000000
       526         5  OSM       H7T            -5.9668581964       -6.4056464164       11.6075284513  MEMB      5               0.0000000000
       527         5  OSM       C8S            -6.8059863263       -7.5265802167        9.8598681725  MEMB      5               0.0000000000
       528         5  OSM       H8S            -7.7920433488       -7.0147228541        9.8636686324  MEMB      5               0.0000000000
       529         5  OSM       H8T            -6.9380083797       -8.6005829530        9.6080560198  MEMB      5               0.0000000000
       530         5  OSM       C9S            -6.1119773633       -6.6433931788        8.7657735496  MEMB      5               0.0000000000
       531         5  OSM       H9S            -5.9167074671       -5.6740733910        9.2723401690  MEMB      5               0.0000000000
       532         5  OSM       H9T            -6.8636544667       -6.5100485406        7.9586050415  MEMB      5               0.0000000000
       533         5  OSM       C10S           -4.7490180311       -7.0995671339        8.1762382587  MEMB      5               0.0000000000
       534         5  OSM       H10S           -3.9653263623       -7.1005275588        8.9637324992  MEMB      5               0.0000000000
       535         5  OSM       H10T           -4.3069839349       -6.3830472093        7.4513069396  MEMB      5               0.0000000000
       536         5  OSM       C11S           -4.8482155497       -8.5366250044        7.6336242910  MEMB      5               0.0000000000
       537         5  OSM       H11S           -5.1850305543       -9.1840256571        8.4713293490  MEMB      5               0.0000000000
       538         5  OSM       H11T           -3.8626463394       -8.8356774587        7.2170407119  MEMB      5               0.0000000000
       539         5  OSM       C12S           -5.9073198044       -8.6803945466        6.5095895780  MEMB      5               0.0000000000
       540         5  OSM       H12S           -6.9137680942       -8.5724180724        6.9675453948  MEMB      5               0.0000000000
       541         5  OSM       H12T           -5.8690321529       -9.7117327111        6.0982536382  MEMB      5               0.0000000000
       542         5  OSM       C13S           -5.8898685851       -7.7295747013        5.3102288866  MEMB      5               0.0000000000
       543         5  OSM       H13S           -4.8260449236       -7.4486145031        5.1564050067  MEMB      5               0.0000000000
       544         5  OSM       H13T           -6.3963574658       -6.7503997904        5.4480929807  MEMB      5               0.0000000000
       545         5  OSM       C14S           -6.3123047073       -8.3725241431        3.9840042984  MEMB      5               0.0000000000
       546         5  OSM       H14S           -6.5069261704       -7.5903238059        3.2194102535  MEMB      5               0.0000000000
       547         5  OSM       H14T           -7.2916882501       -8.8871169066        4.0856068327  MEMB      5               0.0000000000
       548         5  OSM       C15S           -5.2099786006       -9.2570167850        3.3956651267  MEMB      5               0.0000000000
       549         5  OSM       H15S           -4.9680821810      -10.0868723391        4.0936245722  MEMB      5               0.0000000000
       550         5  OSM       H15T           -4.3462215359       -8.5672137826        3.2842353291  MEMB      5               0.0000000000
       551         5  OSM       C16S           -5.4744678554       -9.9923345939        2.0628554255  MEMB      5               0.0000000000
       552         5  OSM       H16S           -6.2969822857      -10.7101209051        2.2691872415  MEMB      5               0.0000000000
       553         5  OSM       H16T           -4.5496497478      -10.5873008132        1.9045909839  MEMB      5               0.0000000000
       554         5  OSM       C17S           -5.6388034808       -9.2004412448        0.7277579344  MEMB      5               0.0000000000
       555         5  OSM       H17S           -4.6846234629       -8.7037360557        0.4500059536  MEMB      5               0.0000000000
       556         5  OSM       H17T           -6.3338779316       -8.3609820099        0.9433979767  MEMB      5               0.0000000000
       557         5  OSM       C18S           -6.2933755412      -10.0472498562       -0.3897099028  MEMB      5               0.0000000000
       558         5  OSM       H18S           -5.7719753169      -11.0280933718       -0.3694866634  MEMB      5               0.0000000000
       559         5  OSM       H18T           -6.1640446719       -9.5680890747       -1.3836918730  MEMB      5               0.0000000000
       560         5  OSM       H18U           -7.4023122815      -10.0136045048       -0.3309904834  MEMB      5               0.0000000000
       561         5  OSM       C1F            -5.4086814530       -3.8186284132       15.4996355775  MEMB      5               0.0000000000
       562         5  OSM       OF             -4.2464672016       -4.1089668606       15.4985764835  MEMB      5               0.0000000000
       563         5  OSM       C2F            -5.8881408648       -2.4502940299       15.0978681088  MEMB      5               0.0000000000
       564         5  OSM       H2F            -5.8223129844       -1.8333576989       16.0194848638  MEMB      5               0.0000000000
       565         5  OSM       H2G            -6.9604718257       -2.4693148949       14.8079269704  MEMB      5               0.0000000000
       566         5  OSM       C3F            -4.9191301917       -1.8445333442       14.0868034067  MEMB      5               0.0000000000
       567         5  OSM       H3F            -3.9404342161       -1.5751765716       14.5383807424  MEMB      5               0.0000000000
       568         5  OSM       H3G            -5.3592343011       -0.9809776240       13.5437563014  MEMB      5               0.0000000000
       569         5  OSM       C4F            -4.6936480050       -2.6740552875       12.7799908773  MEMB      5               0.0000000000
       570         5  OSM       H4F            -4.1317470428       -3.5604185029       13.1446114968  MEMB      5               0.0000000000
       571         5  OSM       H4G            -4.0047246727       -2.0970405340       12.1267218131  MEMB      5               0.0000000000
       572         5  OSM       C5F            -5.9000859783       -3.2214023310       12.0011178381  MEMB      5               0.0000000000
       573         5  OSM       H5F            -6.4647643174       -3.5881417629       12.8848375717  MEMB      5               0.0000000000
       574         5  OSM       H5G            -5.6503721537       -4.1510424410       11.4463805171  MEMB      5               0.0000000000
       575         5  OSM       C6F            -6.7889391016       -2.1466356569       11.2774349486  MEMB      5               0.0000000000
       576         5  OSM       H6F            -6.8679498530       -1.2714418813       11.9572246131  MEMB      5               0.0000000000
       577         5  OSM       H6G            -7.8213842206       -2.5569433143       11.2824681489  MEMB      5               0.0000000000
       578         5  OSM       C7F            -6.2852472544       -1.5023208492        9.9220445497  MEMB      5               0.0000000000
       579         5  OSM       H7F            -5.2113191178       -1.3391936078       10.1552586427  MEMB      5               0.0000000000
       580         5  OSM       H7G            -6.8704016360       -0.5654543379        9.8028958136  MEMB      5               0.0000000000
       581         5  OSM       C8F            -6.4126872681       -2.3843179854        8.6684983100  MEMB      5               0.0000000000
       582         5  OSM       H8F            -5.8311973086       -3.3093978991        8.8695393257  MEMB      5               0.0000000000
       583         5  OSM       H8G            -6.0090196941       -1.8306188890        7.7939754689  MEMB      5               0.0000000000
       584         5  OSM       C9F            -7.8060965457       -2.8682074131        8.4922131002  MEMB      5               0.0000000000
       585         5  OSM       H9F            -8.1756340458       -3.4093143637        9.3757541974  MEMB      5               0.0000000000
       586         5  OSM       C10F           -8.4939306720       -2.8988476628        7.2994293963  MEMB      5               0.0000000000
       587         5  OSM       H10F           -9.5717518550       -3.0892738926        7.4091527574  MEMB      5               0.0000000000
       588         5  OSM       C11F           -8.1010852511       -2.4079677328        5.9778038816  MEMB      5               0.0000000000
       589         5  OSM       H11F           -7.9553583343       -1.3070584529        5.9448885667  MEMB      5               0.0000000000
       590         5  OSM       H11G           -8.9388381132       -2.5414751761        5.2603997856  MEMB      5               0.0000000000
       591         5  OSM       C12F           -6.8803689734       -3.1511518025        5.3210054915  MEMB      5               0.0000000000
       592         5  OSM       H12F           -7.0976364797       -4.2351412302        5.4309281512  MEMB      5               0.0000000000
       593         5  OSM       H12G           -5.9918610619       -3.0477755116        5.9799347636  MEMB      5               0.0000000000
       594         5  OSM       C13F           -6.6029206166       -2.7065277637        3.8943112730  MEMB      5               0.0000000000
       595         5  OSM       H13F           -6.3687615163       -1.6227773627        3.8237757788  MEMB      5               0.0000000000
       596         5  OSM       H13G           -7.5371463778       -2.7550647734        3.2949903301  MEMB      5               0.0000000000
       597         5  OSM       C14F           -5.5503242058       -3.4842085928        3.1264838058  MEMB      5               0.0000000000
       598         5  OSM       H14F           -4.6541710492       -3.5168599924        3.7823531976  MEMB      5               0.0000000000
       599         5  OSM       H14G           -5.3728334334       -2.8658287312        2.2207105756  MEMB      5               0.0000000000
       600         5  OSM       C15F           -5.8820716353       -4.8418594376        2.6943239436  MEMB      5               0.0000000000
       601         5  OSM       H15F           -6.9924772133       -4.8780006866        2.6905140825  MEMB      5               0.0000000000
       602         5  OSM       H15G           -5.5248447903       -5.6784659621        3.3321304187  MEMB      5               0.0000000000
       603         5  OSM       C16F           -5.2575598063       -5.3386945263        1.3828763731  MEMB      5               0.0000000000
       604         5  OSM       H16F           -5.8062846279       -4.8084831693        0.5753514630  MEMB      5               0.0000000000
       605         5  OSM       H16G           -5.4295952031       -6.4210473293        1.2005658289  MEMB      5               0.0000000000
       606         5  OSM       C17F           -3.7447922597       -4.9795617988        1.2820027309  MEMB      5               0.0000000000
       607         5  OSM       H17F           -3.6038673460       -3.8832055769        1.3936458497  MEMB      5               0.0000000000
       608         5  OSM       H17G           -3.3942770673       -5.2997532715        0.2775435370  MEMB      5               0.0000000000
       609         5  OSM       C18F           -2.9565393428       -5.6922486154        2.3318926576  MEMB      5               0.0000000000
       610         5  OSM       H18F           -3.2347440293       -6.7677935554        2.3431137171  MEMB      5               0.0000000000
       611         5  OSM       H18G           -3.2207927994       -5.3333074948        3.3495625618  MEMB      5               0.0000000000
       612         5  OSM       H18H           -1.8624117878       -5.6828101328        2.1392356954  MEMB      5               0.0000000000
       613         6  SAPE      N              -9.5718110398        1.7808993062       21.9696041688  MEMB      6               0.0000000000
       614         6  SAPE      HN1           -10.0701428758        1.7947959602       21.0568761876  MEMB      6               0.0000000000
       615         6  SAPE      HN2           -10.2695313935        1.8396876137       22.7385842680  MEMB      6               0.0000000000
       616         6  SAPE      HN3            -8.9812995768        2.6368116951       21.9872044280  MEMB      6               0.0000000000
       617         6  SAPE      C12            -8.8677569207        0.4340828230       22.0939488081  MEMB      6               0.0000000000
       618         6  SAPE      H12A           -9.6638940772       -0.2476116000       22.4624311437  MEMB      6               0.0000000000
       619         6  SAPE      H12B           -8.1654873935        0.6048135258       22.9377435640  MEMB      6               0.0000000000
       620         6  SAPE      C11            -8.2553114869       -0.1389019014       20.8515805775  MEMB      6               0.0000000000
       621         6  SAPE      H11A           -7.9894184651       -1.1471900585       21.2349562146  MEMB      6               0.0000000000
       622         6  SAPE      H11B           -7.2683289352        0.2996661963       20.5911113027  MEMB      6               0.0000000000
       623         6  SAPE      P              -9.5240400628       -1.4254149812       19.0682126698  MEMB      6               0.0000000000
       624         6  SAPE      O13            -8.3376984858       -1.9450755902       18.3629665080  MEMB      6               0.0000000000
       625         6  SAPE      O14           -10.2154956561       -2.3211173833       19.9660028145  MEMB      6               0.0000000000
       626         6  SAPE      O12            -9.1583114501       -0.0906442431       19.7690747515  MEMB      6               0.0000000000
       627         6  SAPE      O11           -10.5665086237       -1.0328581627       17.9186097099  MEMB      6               0.0000000000
       628         6  SAPE      C1            -11.8199127406       -0.6102693111       18.3570962137  MEMB      6               0.0000000000
       629         6  SAPE      HA            -12.5311603584       -1.4455269425       18.1816184187  MEMB      6               0.0000000000
       630         6  SAPE      HB            -11.8431773487       -0.2477942461       19.4070445947  MEMB      6               0.0000000000
       631         6  SAPE      C2            -12.5076778491        0.6592239244       17.6653546837  MEMB      6               0.0000000000
       632         6  SAPE      HS            -13.5764174149        0.5788287566       17.9580211726  MEMB      6               0.0000000000
       633         6  SAPE      O21           -12.2048878191        0.6589723799       16.2404184894  MEMB      6               0.0000000000
       634         6  SAPE      C21           -13.0108204440       -0.2339227212       15.5953704603  MEMB      6               0.0000000000
       635         6  SAPE      O22           -13.9719337302       -0.7592609122       16.0070970302  MEMB      6               0.0000000000
       636         6  SAPE      C22           -12.3683654528       -0.4943728578       14.2049791897  MEMB      6               0.0000000000
       637         6  SAPE      H2R           -11.3269072614       -0.8527022509       14.3508763921  MEMB      6               0.0000000000
       638         6  SAPE      H2S           -12.8863704459       -1.4127711662       13.8549274667  MEMB      6               0.0000000000
       639         6  SAPE      C3            -12.0459045778        1.8988579749       18.2962114751  MEMB      6               0.0000000000
       640         6  SAPE      HX            -12.5357600093        1.9873597810       19.2894535571  MEMB      6               0.0000000000
       641         6  SAPE      HY            -12.4462909243        2.7273964210       17.6736877763  MEMB      6               0.0000000000
       642         6  SAPE      O31           -10.6026054035        2.0171099441       18.5271284914  MEMB      6               0.0000000000
       643         6  SAPE      C31            -9.9734483723        2.6479947217       17.5870858286  MEMB      6               0.0000000000
       644         6  SAPE      O32           -10.4519305784        3.2928031783       16.7032016827  MEMB      6               0.0000000000
       645         6  SAPE      C32            -8.4282932246        2.4711646929       17.6785801362  MEMB      6               0.0000000000
       646         6  SAPE      H2X            -8.0732479170        2.0425920654       18.6401357056  MEMB      6               0.0000000000
       647         6  SAPE      H2Y            -8.0694061674        3.5216655969       17.6342121640  MEMB      6               0.0000000000
       648         6  SAPE      C23           -12.5367419748        0.6233297013       13.1571837530  MEMB      6               0.0000000000
       649         6  SAPE      H3R           -13.6115720739        0.8097980570       12.9467295936  MEMB      6               0.0000000000
       650         6  SAPE      H3S           -12.1765839471        0.2406245932       12.1783355408  MEMB      6               0.0000000000
       651         6  SAPE      C24           -11.8357955258        1.9943486523       13.3275126030  MEMB      6               0.0000000000
       652         6  SAPE      H4R           -12.3463827172        2.5505430082       14.1425401601  MEMB      6               0.0000000000
       653         6  SAPE      H4S           -11.9312985544        2.6391902474       12.4278578305  MEMB      6               0.0000000000
       654         6  SAPE      C25           -10.3874404676        1.8292802918       13.6606100673  MEMB      6               0.0000000000
       655         6  SAPE      H5R           -10.2933775194        1.4016918930       14.6697289848  MEMB      6               0.0000000000
       656         6  SAPE      C26            -9.2533337689        2.2390059623       13.0164551911  MEMB      6               0.0000000000
       657         6  SAPE      H6R            -8.3038371265        1.8411645407       13.4039834519  MEMB      6               0.0000000000
       658         6  SAPE      C27            -9.2442505784        3.0244045468       11.7344589825  MEMB      6               0.0000000000
       659         6  SAPE      H7R            -9.7349434870        2.4815244988       10.8985029799  MEMB      6               0.0000000000
       660         6  SAPE      H7S            -8.1572441446        3.0330914256       11.5049760952  MEMB      6               0.0000000000
       661         6  SAPE      C28            -9.7606380121        4.4200930627       12.0128730995  MEMB      6               0.0000000000
       662         6  SAPE      H8R            -9.5947970151        4.6426536555       13.0772803053  MEMB      6               0.0000000000
       663         6  SAPE      C29           -10.3060663302        5.2732943466       11.1212586505  MEMB      6               0.0000000000
       664         6  SAPE      H9R           -10.6997809018        6.2270108234       11.5025907405  MEMB      6               0.0000000000
       665         6  SAPE      C210          -10.5030590000        4.9414361076        9.6698908228  MEMB      6               0.0000000000
       666         6  SAPE      H10R          -10.8699825417        3.9064017334        9.5013911120  MEMB      6               0.0000000000
       667         6  SAPE      H10S           -9.5455891505        4.9456574156        9.1063702576  MEMB      6               0.0000000000
       668         6  SAPE      C211          -11.5280493283        5.7896396005        8.9435691592  MEMB      6               0.0000000000
       669         6  SAPE      H11R          -12.1580213061        6.4653531975        9.5406844737  MEMB      6               0.0000000000
       670         6  SAPE      C212          -11.7551176133        5.8003595029        7.6153578551  MEMB      6               0.0000000000
       671         6  SAPE      H12R          -12.4972804311        6.5612526229        7.3320975793  MEMB      6               0.0000000000
       672         6  SAPE      C213          -11.0418005063        4.9881524278        6.5451367502  MEMB      6               0.0000000000
       673         6  SAPE      H13R          -10.0244351082        4.7721981851        6.9358450707  MEMB      6               0.0000000000
       674         6  SAPE      H13S          -10.8943896649        5.6220125447        5.6446853403  MEMB      6               0.0000000000
       675         6  SAPE      C214          -11.6453885278        3.6542444906        6.3351068757  MEMB      6               0.0000000000
       676         6  SAPE      H14R          -11.9153503240        3.1504616691        7.2749593124  MEMB      6               0.0000000000
       677         6  SAPE      C215          -11.8620684615        2.9523491519        5.1225600752  MEMB      6               0.0000000000
       678         6  SAPE      H15R          -12.4211840374        2.0157858030        5.2648238425  MEMB      6               0.0000000000
       679         6  SAPE      C216          -11.5418155393        3.3791878321        3.6905072488  MEMB      6               0.0000000000
       680         6  SAPE      H16R          -10.7021096274        2.8239998977        3.2204211783  MEMB      6               0.0000000000
       681         6  SAPE      H16S          -11.2147060316        4.4409367548        3.6874245910  MEMB      6               0.0000000000
       682         6  SAPE      C217          -12.8439714901        3.4544643985        2.9028155767  MEMB      6               0.0000000000
       683         6  SAPE      H17R          -13.4564324954        4.2891084187        3.3060295481  MEMB      6               0.0000000000
       684         6  SAPE      H17S          -13.4127409773        2.5443578367        3.1900948818  MEMB      6               0.0000000000
       685         6  SAPE      C218          -12.6339729159        3.6311970086        1.3720627380  MEMB      6               0.0000000000
       686         6  SAPE      H18R          -13.6397748878        3.4871645233        0.9226877568  MEMB      6               0.0000000000
       687         6  SAPE      H18S          -12.0699265919        2.7337638429        1.0392157687  MEMB      6               0.0000000000
       688         6  SAPE      C219          -11.9621375342        4.9717743976        0.9610971164  MEMB      6               0.0000000000
       689         6  SAPE      H19R          -11.6230882374        5.0428622632       -0.0945139996  MEMB      6               0.0000000000
       690         6  SAPE      H19S          -11.0817535030        5.0065416162        1.6378806693  MEMB      6               0.0000000000
       691         6  SAPE      C220          -12.8187564534        6.2157602083        1.1213453120  MEMB      6               0.0000000000
       692         6  SAPE      H20R          -12.1540323000        7.1042621298        1.0663269990  MEMB      6               0.0000000000
       693         6  SAPE      H20S          -13.2750419274        6.1863809836        2.1338969371  MEMB      6               0.0000000000
       694         6  SAPE      H20T          -13.6047619828        6.3371917084        0.3456070185  MEMB      6               0.0000000000
       695         6  SAPE      C33            -8.1262286588        1.3957466541       16.6375397271  MEMB      6               0.0000000000
       696         6  SAPE      H3X            -8.0794979894        1.9781130900       15.6925597806  MEMB      6               0.0000000000
       697         6  SAPE      H3Y            -8.9374116680        0.6366201192       16.6320577606  MEMB      6               0.0000000000
       698         6  SAPE      C34            -6.7597929500        0.7095666290       16.9085662995  MEMB      6               0.0000000000
       699         6  SAPE      H4X            -6.6940717102        0.1289522998       17.8534940839  MEMB      6               0.0000000000
       700         6  SAPE      H4Y            -5.9628099258        1.4537173897       17.1215892023  MEMB      6               0.0000000000
       701         6  SAPE      C35            -6.0896889314       -0.0799729608       15.7964383514  MEMB      6               0.0000000000
       702         6  SAPE      H5X            -5.1824729583       -0.6225137251       16.1383883223  MEMB      6               0.0000000000
       703         6  SAPE      H5Y            -5.7631580328        0.6767535476       15.0514122851  MEMB      6               0.0000000000
       704         6  SAPE      C36            -7.0495238759       -1.0710845593       15.0543056267  MEMB      6               0.0000000000
       705         6  SAPE      H6X            -7.9942653237       -0.4930564069       14.9667397397  MEMB      6               0.0000000000
       706         6  SAPE      H6Y            -7.1025792578       -1.9086253407       15.7823383707  MEMB      6               0.0000000000
       707         6  SAPE      C37            -6.4248043367       -1.4191737918       13.7294679201  MEMB      6               0.0000000000
       708         6  SAPE      H7X            -5.4620592254       -1.9688620283       13.8021692148  MEMB      6               0.0000000000
       709         6  SAPE      H7Y            -6.1991622237       -0.4909081146       13.1622561519  MEMB      6               0.0000000000
       710         6  SAPE      C38            -7.2600916351       -2.2871610051       12.8154316812  MEMB      6               0.0000000000
       711         6  SAPE      H8X            -7.5684792742       -3.2411185139       13.2941621860  MEMB      6               0.0000000000
       712         6  SAPE      H8Y            -6.6483283150       -2.5135033820       11.9160785738  MEMB      6               0.0000000000
       713         6  SAPE      C39            -8.5073102103       -1.6315627057       12.1745207771  MEMB      6               0.0000000000
       714         6  SAPE      H9X            -8.1372131934       -0.7021334301       11.6912917522  MEMB      6               0.0000000000
       715         6  SAPE      H9Y            -9.3017187834       -1.4204369653       12.9219574993  MEMB      6               0.0000000000
       716         6  SAPE      C310           -9.0234984594       -2.5521701328       11.0979450647  MEMB      6               0.0000000000
       717         6  SAPE      H10X           -9.1773704899       -3.6209317717       11.3594649280  MEMB      6               0.0000000000
       718         6  SAPE      H10Y           -8.2487730013       -2.5775105006       10.3020305323  MEMB      6               0.0000000000
       719         6  SAPE      C311          -10.3648633030       -2.0956632136       10.4442908600  MEMB      6               0.0000000000
       720         6  SAPE      H11X          -10.2824951245       -1.0738033949       10.0161094557  MEMB      6               0.0000000000
       721         6  SAPE      H11Y          -11.1211986380       -2.0559958591       11.2571280741  MEMB      6               0.0000000000
       722         6  SAPE      C312          -11.0043478750       -2.9592798237        9.3759869806  MEMB      6               0.0000000000
       723         6  SAPE      H12X          -11.9088066273       -2.3611534132        9.1340777759  MEMB      6               0.0000000000
       724         6  SAPE      H12Y          -11.4492987421       -3.8723125360        9.8262215495  MEMB      6               0.0000000000
       725         6  SAPE      C313          -10.2356708534       -3.3772065831        8.0857974471  MEMB      6               0.0000000000
       726         6  SAPE      H13X          -10.8326322679       -4.2022468733        7.6416510709  MEMB      6               0.0000000000
       727         6  SAPE      H13Y           -9.2877703151       -3.8792624348        8.3751853563  MEMB      6               0.0000000000
       728         6  SAPE      C314          -10.2142108947       -2.3085772160        6.9917810633  MEMB      6               0.0000000000
       729         6  SAPE      H14X           -9.2269191045       -2.3883470449        6.4885788904  MEMB      6               0.0000000000
       730         6  SAPE      H14Y          -10.4561590931       -1.2935834911        7.3733172801  MEMB      6               0.0000000000
       731         6  SAPE      C315          -11.1656743197       -2.6268155316        5.8257771058  MEMB      6               0.0000000000
       732         6  SAPE      H15X          -12.2181365094       -2.6374656892        6.1814884847  MEMB      6               0.0000000000
       733         6  SAPE      H15Y          -10.9012143258       -3.6160385533        5.3947087387  MEMB      6               0.0000000000
       734         6  SAPE      C316          -11.0884015006       -1.4947850449        4.7997558812  MEMB      6               0.0000000000
       735         6  SAPE      H16X          -10.0449858482       -1.3063922854        4.4679228724  MEMB      6               0.0000000000
       736         6  SAPE      H16Y          -11.3692989805       -0.4948510639        5.1941537425  MEMB      6               0.0000000000
       737         6  SAPE      C317          -11.9770369903       -1.6788970273        3.5997925851  MEMB      6               0.0000000000
       738         6  SAPE      H17X          -12.9971928823       -1.7101042825        4.0386876735  MEMB      6               0.0000000000
       739         6  SAPE      H17Y          -11.8147240482       -2.6345626103        3.0569490687  MEMB      6               0.0000000000
       740         6  SAPE      C318          -12.0106514899       -0.6653091998        2.5141009445  MEMB      6               0.0000000000
       741         6  SAPE      H18X          -12.0528749373        0.3616811043        2.9357990082  MEMB      6               0.0000000000
       742         6  SAPE      H18Y          -12.8217017008       -0.9954974804        1.8303656752  MEMB      6               0.0000000000
       743         6  SAPE      H18Z          -11.0753977868       -0.7533735456        1.9209172397  MEMB      6               0.0000000000
       744         7  CHL1      C3             -6.2448673778        6.7876030167       17.3389400000  MEMB      7               0.0000000000
       745         7  CHL1      H3             -6.9086955776        5.9034134337       17.2301100000  MEMB      7               0.0000000000
       746         7  CHL1      O3             -6.1805076622        7.2125100233       18.6610600000  MEMB      7               0.0000000000
       747         7  CHL1      H3'            -6.2843097107        6.4681267462       19.2583200000  MEMB      7               0.0000000000
       748         7  CHL1      C4             -4.8779972335        6.4074198857       16.8859600000  MEMB      7               0.0000000000
       749         7  CHL1      H4A            -4.1646169027        7.1564070322       17.2914600000  MEMB      7               0.0000000000
       750         7  CHL1      H4B            -4.6438115397        5.4840320819       17.4576500000  MEMB      7               0.0000000000
       751         7  CHL1      C5             -4.8174315912        6.3208292726       15.3505600000  MEMB      7               0.0000000000
       752         7  CHL1      C6             -4.4556389862        5.1767281192       14.7234200000  MEMB      7               0.0000000000
       753         7  CHL1      H6             -4.3114584785        4.2412550321       15.2838600000  MEMB      7               0.0000000000
       754         7  CHL1      C7             -4.3676478390        4.9756830725       13.2483700000  MEMB      7               0.0000000000
       755         7  CHL1      H7A            -3.5124037067        4.3390082349       12.9360800000  MEMB      7               0.0000000000
       756         7  CHL1      H7B            -5.3559485555        4.6183027670       12.8880200000  MEMB      7               0.0000000000
       757         7  CHL1      C8             -4.2102567609        6.3152646702       12.4742500000  MEMB      7               0.0000000000
       758         7  CHL1      H8             -3.1928695828        6.7215203719       12.6591600000  MEMB      7               0.0000000000
       759         7  CHL1      C14            -4.5345891457        6.1053562836       11.0029300000  MEMB      7               0.0000000000
       760         7  CHL1      H14            -5.5630032027        5.7142517448       10.8489200000  MEMB      7               0.0000000000
       761         7  CHL1      C15            -3.7202548558        5.0669240494       10.2658200000  MEMB      7               0.0000000000
       762         7  CHL1      H15A           -2.7080731269        4.8924508999       10.6893500000  MEMB      7               0.0000000000
       763         7  CHL1      H15B           -4.2486749172        4.1073008947       10.4507800000  MEMB      7               0.0000000000
       764         7  CHL1      C16            -3.7754319530        5.5273015759        8.8242900000  MEMB      7               0.0000000000
       765         7  CHL1      H16A           -2.7317329688        5.8390507304        8.6056200000  MEMB      7               0.0000000000
       766         7  CHL1      H16B           -4.1305991208        4.7361903701        8.1298000000  MEMB      7               0.0000000000
       767         7  CHL1      C17            -4.6686218905        6.7403545583        8.7281500000  MEMB      7               0.0000000000
       768         7  CHL1      H17            -5.7378273612        6.4413186232        8.6869800000  MEMB      7               0.0000000000
       769         7  CHL1      C13            -4.5082083675        7.3452543631       10.1259900000  MEMB      7               0.0000000000
       770         7  CHL1      C18            -3.1635708122        8.1345211141       10.2642900000  MEMB      7               0.0000000000
       771         7  CHL1      H18A           -3.1015546875        8.9488854927        9.5111100000  MEMB      7               0.0000000000
       772         7  CHL1      H18B           -2.9400245667        8.4957807231       11.2908600000  MEMB      7               0.0000000000
       773         7  CHL1      H18C           -2.2686562691        7.4956796654       10.1051400000  MEMB      7               0.0000000000
       774         7  CHL1      C12            -5.7467152089        8.0935919076       10.6309100000  MEMB      7               0.0000000000
       775         7  CHL1      H12A           -5.9540627174        9.0466675659       10.0989700000  MEMB      7               0.0000000000
       776         7  CHL1      H12B           -6.6421776020        7.4475051278       10.5083100000  MEMB      7               0.0000000000
       777         7  CHL1      C11            -5.5738529929        8.5293122853       12.1541000000  MEMB      7               0.0000000000
       778         7  CHL1      H11A           -4.7689431143        9.2843662171       12.2819200000  MEMB      7               0.0000000000
       779         7  CHL1      H11B           -6.5028768104        9.0812427394       12.4121900000  MEMB      7               0.0000000000
       780         7  CHL1      C9             -5.3113093114        7.3381165838       13.0718300000  MEMB      7               0.0000000000
       781         7  CHL1      H9             -6.2650651034        6.7803241512       12.9554700000  MEMB      7               0.0000000000
       782         7  CHL1      C10            -5.2584761727        7.6238645454       14.5829800000  MEMB      7               0.0000000000
       783         7  CHL1      C19            -4.1975799650        8.6895555944       14.8879200000  MEMB      7               0.0000000000
       784         7  CHL1      H19A           -4.5425639215        9.6813327794       14.5250500000  MEMB      7               0.0000000000
       785         7  CHL1      H19B           -4.0078105803        8.9256787461       15.9568300000  MEMB      7               0.0000000000
       786         7  CHL1      H19C           -3.2116085812        8.4793972895       14.4209900000  MEMB      7               0.0000000000
       787         7  CHL1      C1             -6.6999628783        8.0640337321       15.0341700000  MEMB      7               0.0000000000
       788         7  CHL1      H1A            -6.7529619036        9.1332986926       14.7372100000  MEMB      7               0.0000000000
       789         7  CHL1      H1B            -7.5316996298        7.4282171765       14.6623300000  MEMB      7               0.0000000000
       790         7  CHL1      C2             -6.9003098657        7.9746851192       16.5340500000  MEMB      7               0.0000000000
       791         7  CHL1      H2A            -7.9666416579        7.9861346642       16.8456900000  MEMB      7               0.0000000000
       792         7  CHL1      H2B            -6.3886265070        8.8657807161       16.9564900000  MEMB      7               0.0000000000
       793         7  CHL1      C20            -4.3570907182        7.5532558443        7.3474400000  MEMB      7               0.0000000000
       794         7  CHL1      H20            -3.2737297388        7.7993948157        7.3544900000  MEMB      7               0.0000000000
       795         7  CHL1      C21            -5.2144404284        8.7958185252        7.2574200000  MEMB      7               0.0000000000
       796         7  CHL1      H21A           -6.2819833566        8.6382146348        6.9931800000  MEMB      7               0.0000000000
       797         7  CHL1      H21B           -4.8854557504        9.4536562883        6.4247400000  MEMB      7               0.0000000000
       798         7  CHL1      H21C           -5.0775006188        9.4161264212        8.1689000000  MEMB      7               0.0000000000
       799         7  CHL1      C22            -4.7190579305        6.6469524600        6.1739700000  MEMB      7               0.0000000000
       800         7  CHL1      H22A           -4.0473294757        5.7620248522        6.1738900000  MEMB      7               0.0000000000
       801         7  CHL1      H22B           -5.7574742542        6.3086161225        6.3777900000  MEMB      7               0.0000000000
       802         7  CHL1      C23            -4.7075662112        7.3418776304        4.7835800000  MEMB      7               0.0000000000
       803         7  CHL1      H23A           -5.4648204220        8.1401264751        4.6297200000  MEMB      7               0.0000000000
       804         7  CHL1      H23B           -3.6767266039        7.6580232070        4.5157200000  MEMB      7               0.0000000000
       805         7  CHL1      C24            -5.0881542197        6.3182895022        3.6844300000  MEMB      7               0.0000000000
       806         7  CHL1      H24A           -4.2375495603        5.6118004326        3.5764400000  MEMB      7               0.0000000000
       807         7  CHL1      H24B           -5.9791837360        5.7579047837        4.0399000000  MEMB      7               0.0000000000
       808         7  CHL1      C25            -5.4462456344        6.8995834078        2.3035300000  MEMB      7               0.0000000000
       809         7  CHL1      H25            -6.3711074681        7.5098843312        2.3840800000  MEMB      7               0.0000000000
       810         7  CHL1      C26            -4.4489313109        8.0096277489        1.8429600000  MEMB      7               0.0000000000
       811         7  CHL1      H26A           -4.7477290837        8.5831433947        0.9395600000  MEMB      7               0.0000000000
       812         7  CHL1      H26B           -4.4717329741        8.8393163844        2.5814900000  MEMB      7               0.0000000000
       813         7  CHL1      H26C           -3.3892221130        7.6770082804        1.8167000000  MEMB      7               0.0000000000
       814         7  CHL1      C27            -5.4382745125        5.8259415064        1.2490400000  MEMB      7               0.0000000000
       815         7  CHL1      H27A           -4.4291300737        5.3840690396        1.1051800000  MEMB      7               0.0000000000
       816         7  CHL1      H27B           -6.1007751326        4.9423465089        1.3702600000  MEMB      7               0.0000000000
       817         7  CHL1      H27C           -5.7881903463        6.2427151924        0.2804400000  MEMB      7               0.0000000000
       818         8  SAPC      N              11.0912086938       -6.8394436307       21.7860554134  MEMB      8               0.0000000000
       819         8  SAPC      C12            10.5212085673       -5.4869415350       21.3372561311  MEMB      8               0.0000000000
       820         8  SAPC      H12A           10.3044127859       -4.9407108937       22.2433641118  MEMB      8               0.0000000000
       821         8  SAPC      H12B            9.5533829410       -5.6807981202       20.8989260960  MEMB      8               0.0000000000
       822         8  SAPC      C13            10.2676383190       -7.5174849539       22.7945941250  MEMB      8               0.0000000000
       823         8  SAPC      H13A            9.2266128219       -7.5290464214       22.5073095917  MEMB      8               0.0000000000
       824         8  SAPC      H13B           10.5835457000       -8.5480912081       22.8613271255  MEMB      8               0.0000000000
       825         8  SAPC      H13C           10.4036177170       -6.9196337248       23.6836855137  MEMB      8               0.0000000000
       826         8  SAPC      C14            11.0558724746       -7.8822038031       20.7535697382  MEMB      8               0.0000000000
       827         8  SAPC      H14A           11.6530623072       -8.7250915392       21.0686962478  MEMB      8               0.0000000000
       828         8  SAPC      H14B           10.0296098221       -8.1997929298       20.6425647311  MEMB      8               0.0000000000
       829         8  SAPC      H14C           11.4089473548       -7.4059867824       19.8508208562  MEMB      8               0.0000000000
       830         8  SAPC      C15            12.4766687012       -6.6025634666       22.2512244175  MEMB      8               0.0000000000
       831         8  SAPC      H15A           12.5107249458       -5.8629187038       23.0374596389  MEMB      8               0.0000000000
       832         8  SAPC      H15B           12.9484304738       -7.5138817305       22.5878843978  MEMB      8               0.0000000000
       833         8  SAPC      H15C           12.9680529651       -6.0989997846       21.4318556659  MEMB      8               0.0000000000
       834         8  SAPC      C11            11.2412892603       -4.5793767899       20.2972263995  MEMB      8               0.0000000000
       835         8  SAPC      H11A           12.2225984213       -4.3372975165       20.7584758938  MEMB      8               0.0000000000
       836         8  SAPC      H11B           10.5483619030       -3.7115740654       20.2641944491  MEMB      8               0.0000000000
       837         8  SAPC      P              10.0737305389       -5.2907351303       18.1549792758  MEMB      8               0.0000000000
       838         8  SAPC      O13            10.2075190621       -6.2530347665       17.0362106077  MEMB      8               0.0000000000
       839         8  SAPC      O14             8.8102105963       -5.3546784950       18.9312266701  MEMB      8               0.0000000000
       840         8  SAPC      O12            11.3521147361       -5.2572648430       19.0773697640  MEMB      8               0.0000000000
       841         8  SAPC      O11            10.1760580563       -3.8029537208       17.5802874576  MEMB      8               0.0000000000
       842         8  SAPC      C1             11.2369619381       -3.6032716955       16.5755057714  MEMB      8               0.0000000000
       843         8  SAPC      HA             12.0069931819       -2.9841515323       17.0835047536  MEMB      8               0.0000000000
       844         8  SAPC      HB             11.6742970191       -4.4890716911       16.0671578616  MEMB      8               0.0000000000
       845         8  SAPC      C2             10.7447671785       -2.6171280453       15.4376933249  MEMB      8               0.0000000000
       846         8  SAPC      HS             10.2894628774       -1.7260228582       15.9203429036  MEMB      8               0.0000000000
       847         8  SAPC      O21             9.7627458015       -3.2124922402       14.6008730453  MEMB      8               0.0000000000
       848         8  SAPC      C21             8.4691384712       -3.2834561293       15.0450485482  MEMB      8               0.0000000000
       849         8  SAPC      O22             8.1231448084       -2.9640461741       16.1746978921  MEMB      8               0.0000000000
       850         8  SAPC      C22             7.5397807567       -3.5697337694       13.7830292968  MEMB      8               0.0000000000
       851         8  SAPC      H2R             8.0087297172       -4.3298383973       13.1222349812  MEMB      8               0.0000000000
       852         8  SAPC      H2S             6.6931570936       -4.0800600205       14.2900958235  MEMB      8               0.0000000000
       853         8  SAPC      C3             11.8781332126       -2.1545944378       14.5285103482  MEMB      8               0.0000000000
       854         8  SAPC      HX             12.5898698752       -1.6628119639       15.2255766560  MEMB      8               0.0000000000
       855         8  SAPC      HY             11.5194030085       -1.4192231541       13.7769364713  MEMB      8               0.0000000000
       856         8  SAPC      O31            12.5809944828       -3.2704623165       13.9389922734  MEMB      8               0.0000000000
       857         8  SAPC      C31            13.6571868665       -2.8980939051       13.4105150706  MEMB      8               0.0000000000
       858         8  SAPC      O32            14.1559786493       -1.8392643233       13.3590220936  MEMB      8               0.0000000000
       859         8  SAPC      C32            14.3431447687       -4.1215972583       12.7661282884  MEMB      8               0.0000000000
       860         8  SAPC      H2X            15.1236750572       -4.6007677477       13.3950073787  MEMB      8               0.0000000000
       861         8  SAPC      H2Y            14.7313369679       -3.7045137840       11.8123629562  MEMB      8               0.0000000000
       862         8  SAPC      C23             7.3530466651       -2.3111855711       12.9590642683  MEMB      8               0.0000000000
       863         8  SAPC      H3R             8.3731558333       -2.0642346401       12.5947660293  MEMB      8               0.0000000000
       864         8  SAPC      H3S             6.9546815881       -1.4469486326       13.5324068575  MEMB      8               0.0000000000
       865         8  SAPC      C24             6.4001339601       -2.6166683711       11.8171188702  MEMB      8               0.0000000000
       866         8  SAPC      H4R             5.8288569264       -1.7543069250       11.4117840784  MEMB      8               0.0000000000
       867         8  SAPC      H4S             5.6250319942       -3.2948215079       12.2338279034  MEMB      8               0.0000000000
       868         8  SAPC      C25             7.1585149884       -3.3460092596       10.7685312638  MEMB      8               0.0000000000
       869         8  SAPC      H5R             7.1094510843       -4.4418383976       10.8506950093  MEMB      8               0.0000000000
       870         8  SAPC      C26             7.5353998665       -2.7095590115        9.6063823310  MEMB      8               0.0000000000
       871         8  SAPC      H6R             7.9090087627       -3.3210537928        8.7718228481  MEMB      8               0.0000000000
       872         8  SAPC      C27             7.3477077261       -1.2676960820        9.1466846359  MEMB      8               0.0000000000
       873         8  SAPC      H7R             6.2892281317       -1.0902074823        9.4338071942  MEMB      8               0.0000000000
       874         8  SAPC      H7S             7.4589041797       -1.4202117556        8.0518358048  MEMB      8               0.0000000000
       875         8  SAPC      C28             8.2096759873       -0.0616223838        9.5552400011  MEMB      8               0.0000000000
       876         8  SAPC      H8R             7.6364910248        0.8459333499        9.7956596113  MEMB      8               0.0000000000
       877         8  SAPC      C29             9.5071300802        0.0287387095        9.7858884293  MEMB      8               0.0000000000
       878         8  SAPC      H9R             9.8793065472        1.0196704090       10.0851189445  MEMB      8               0.0000000000
       879         8  SAPC      C210           10.4106972695       -1.1407708940        9.6222005729  MEMB      8               0.0000000000
       880         8  SAPC      H10R           10.2414196526       -1.6515032145        8.6501831572  MEMB      8               0.0000000000
       881         8  SAPC      H10S           10.0293961631       -1.7844709429       10.4435300047  MEMB      8               0.0000000000
       882         8  SAPC      C211           11.8268117447       -0.7445939892        9.8849381465  MEMB      8               0.0000000000
       883         8  SAPC      H11R           11.9678689786       -0.2603832537       10.8625078456  MEMB      8               0.0000000000
       884         8  SAPC      C212           12.9517786602       -0.8768062401        9.2023912406  MEMB      8               0.0000000000
       885         8  SAPC      H12R           13.9613985810       -0.6410916358        9.5699592072  MEMB      8               0.0000000000
       886         8  SAPC      C213           13.2334517880       -1.4988598434        7.8574214111  MEMB      8               0.0000000000
       887         8  SAPC      H13R           14.3246377456       -1.6138232705        7.6830156768  MEMB      8               0.0000000000
       888         8  SAPC      H13S           12.9219418648       -0.7350072645        7.1132366986  MEMB      8               0.0000000000
       889         8  SAPC      C214           12.6409226358       -2.8248637295        7.7370424466  MEMB      8               0.0000000000
       890         8  SAPC      H14R           12.2386316899       -3.2372971478        8.6740914473  MEMB      8               0.0000000000
       891         8  SAPC      C215           12.6098379511       -3.4784647401        6.5427328098  MEMB      8               0.0000000000
       892         8  SAPC      H15R           12.0778436376       -4.4398655466        6.5945998460  MEMB      8               0.0000000000
       893         8  SAPC      C216           13.1489458201       -3.0303855522        5.1698664350  MEMB      8               0.0000000000
       894         8  SAPC      H16R           13.9024248848       -3.7479601718        4.7804090627  MEMB      8               0.0000000000
       895         8  SAPC      H16S           13.6401579564       -2.0356166064        5.2287439585  MEMB      8               0.0000000000
       896         8  SAPC      C217           12.1002159488       -2.9150863604        4.0096341851  MEMB      8               0.0000000000
       897         8  SAPC      H17R           11.8562159258       -3.9534515211        3.6988567166  MEMB      8               0.0000000000
       898         8  SAPC      H17S           12.6484874098       -2.3330079338        3.2383331147  MEMB      8               0.0000000000
       899         8  SAPC      C218           10.8004397009       -2.1631299018        4.4751014272  MEMB      8               0.0000000000
       900         8  SAPC      H18R           10.8375340044       -1.0726644139        4.6844574471  MEMB      8               0.0000000000
       901         8  SAPC      H18S           10.3595294942       -2.4978356950        5.4383729141  MEMB      8               0.0000000000
       902         8  SAPC      C219            9.6070852734       -2.3057325154        3.4086884951  MEMB      8               0.0000000000
       903         8  SAPC      H19R            8.7519226319       -1.6794501467        3.7415370863  MEMB      8               0.0000000000
       904         8  SAPC      H19S            9.3020019142       -3.3721347329        3.3451932684  MEMB      8               0.0000000000
       905         8  SAPC      C220            9.9098943828       -1.8476338344        1.9635216271  MEMB      8               0.0000000000
       906         8  SAPC      H20R           10.2097514708       -0.7785271242        2.0011703154  MEMB      8               0.0000000000
       907         8  SAPC      H20S            8.9354126526       -1.9208262324        1.4349871707  MEMB      8               0.0000000000
       908         8  SAPC      H20T           10.7161684148       -2.4966958987        1.5598372553  MEMB      8               0.0000000000
       909         8  SAPC      C33            13.3905276383       -5.2855254883       12.3166903534  MEMB      8               0.0000000000
       910         8  SAPC      H3X            12.8082596900       -5.6969976069       13.1687324792  MEMB      8               0.0000000000
       911         8  SAPC      H3Y            14.1658186164       -6.0296096229       12.0345849027  MEMB      8               0.0000000000
       912         8  SAPC      C34            12.4894985337       -4.8256322477       11.2125028359  MEMB      8               0.0000000000
       913         8  SAPC      H4X            13.1234047204       -4.5045864401       10.3584457716  MEMB      8               0.0000000000
       914         8  SAPC      H4Y            12.0020081098       -3.8609033911       11.4693535995  MEMB      8               0.0000000000
       915         8  SAPC      C35            11.4709517388       -5.8982628543       10.8358457284  MEMB      8               0.0000000000
       916         8  SAPC      H5X            10.8698072978       -6.1022113486       11.7476305606  MEMB      8               0.0000000000
       917         8  SAPC      H5Y            12.0772816376       -6.7936238950       10.5808677475  MEMB      8               0.0000000000
       918         8  SAPC      C36            10.7049774636       -5.5401806722        9.6373314907  MEMB      8               0.0000000000
       919         8  SAPC      H6X            11.3840110321       -5.3880701424        8.7712499425  MEMB      8               0.0000000000
       920         8  SAPC      H6Y            10.0264340290       -4.6830883203        9.8355547706  MEMB      8               0.0000000000
       921         8  SAPC      C37             9.7179769799       -6.7336468035        9.2131407174  MEMB      8               0.0000000000
       922         8  SAPC      H7X             9.0964254115       -6.4734048352        8.3298134755  MEMB      8               0.0000000000
       923         8  SAPC      H7Y             9.1623899294       -7.1492674438       10.0808415286  MEMB      8               0.0000000000
       924         8  SAPC      C38            10.5065698314       -8.1061884501        8.8260624746  MEMB      8               0.0000000000
       925         8  SAPC      H8X             9.7694018439       -8.9079676630        8.6068482122  MEMB      8               0.0000000000
       926         8  SAPC      H8Y            11.1404644635       -8.4232524284        9.6816147026  MEMB      8               0.0000000000
       927         8  SAPC      C39            11.4260438521       -7.9177253108        7.6123451465  MEMB      8               0.0000000000
       928         8  SAPC      H9X            11.8505498996       -8.9256829475        7.4170580529  MEMB      8               0.0000000000
       929         8  SAPC      H9Y            12.2209514234       -7.1873654497        7.8750571926  MEMB      8               0.0000000000
       930         8  SAPC      C310           10.6164705834       -7.4077944746        6.3926105718  MEMB      8               0.0000000000
       931         8  SAPC      H10X           10.1410345733       -6.4317656542        6.6285114071  MEMB      8               0.0000000000
       932         8  SAPC      H10Y            9.8540129904       -8.1904516762        6.1915442287  MEMB      8               0.0000000000
       933         8  SAPC      C311           11.5356698311       -7.2661006320        5.1811182966  MEMB      8               0.0000000000
       934         8  SAPC      H11X           12.2660229092       -8.1001535602        5.2536545230  MEMB      8               0.0000000000
       935         8  SAPC      H11Y           12.2161712147       -6.3957407874        5.2982191194  MEMB      8               0.0000000000
       936         8  SAPC      C312           10.7616376327       -7.2002353824        3.8223381830  MEMB      8               0.0000000000
       937         8  SAPC      H12X           10.0791226227       -6.3236360158        3.8305752778  MEMB      8               0.0000000000
       938         8  SAPC      H12Y            9.9485645639       -7.9484562169        3.7065834394  MEMB      8               0.0000000000
       939         8  SAPC      C313           11.6291230614       -7.2573450498        2.5661815012  MEMB      8               0.0000000000
       940         8  SAPC      H13X           12.0657141611       -8.2769374286        2.6305311457  MEMB      8               0.0000000000
       941         8  SAPC      H13Y           12.4046305436       -6.4721654311        2.6942523440  MEMB      8               0.0000000000
       942         8  SAPC      C314           10.9216269619       -6.9864984304        1.2238933216  MEMB      8               0.0000000000
       943         8  SAPC      H14X           10.3678143705       -6.0582059585        1.4805757828  MEMB      8               0.0000000000
       944         8  SAPC      H14Y           10.1454571382       -7.7445544648        0.9846603516  MEMB      8               0.0000000000
       945         8  SAPC      C315           11.8502737094       -6.6893484918        0.0484825069  MEMB      8               0.0000000000
       946         8  SAPC      H15X           12.4454138940       -7.6137983045       -0.1112712566  MEMB      8               0.0000000000
       947         8  SAPC      H15Y           12.5630597755       -5.8700132393        0.2828899158  MEMB      8               0.0000000000
       948         8  SAPC      C316           11.0745467219       -6.3871072963       -1.2683019491  MEMB      8               0.0000000000
       949         8  SAPC      H16X           10.3093136793       -5.6440586208       -0.9574678798  MEMB      8               0.0000000000
       950         8  SAPC      H16Y           10.5792398507       -7.3766483388       -1.3673001397  MEMB      8               0.0000000000
       951         8  SAPC      C317           11.9279951941       -6.1485643307       -2.4884461473  MEMB      8               0.0000000000
       952         8  SAPC      H17X           11.1806696835       -6.2947268026       -3.2974346687  MEMB      8               0.0000000000
       953         8  SAPC      H17Y           12.6788927144       -6.9581280146       -2.6112497874  MEMB      8               0.0000000000
       954         8  SAPC      C318           12.5924235186       -4.7622823458       -2.7149198428  MEMB      8               0.0000000000
       955         8  SAPC      H18X           13.3308938989       -4.6090464386       -1.8991375451  MEMB      8               0.0000000000
       956         8  SAPC      H18Y           11.7935891676       -4.0077320432       -2.5510955531  MEMB      8               0.0000000000
       957         8  SAPC      H18Z           13.0155340523       -4.7152369260       -3.7411200036  MEMB      8               0.0000000000
       958         9  CHL1      C3              9.0485347301        9.0219159691       17.4587900000  MEMB      9               0.0000000000
       959         9  CHL1      H3              9.8508732614        9.7826258748       17.5678100000  MEMB      9               0.0000000000
       960         9  CHL1      O3              9.0692153499        8.2036911909       18.5412100000  MEMB      9               0.0000000000
       961         9  CHL1      H3'             8.4745300058        7.5091156359       18.2487900000  MEMB      9               0.0000000000
       962         9  CHL1      C4              7.6879016484        9.6089229536       17.1390500000  MEMB      9               0.0000000000
       963         9  CHL1      H4A             6.9632764376        8.7670755872       17.1160600000  MEMB      9               0.0000000000
       964         9  CHL1      H4B             7.5067560525       10.3142190273       17.9781400000  MEMB      9               0.0000000000
       965         9  CHL1      C5              7.6108732385       10.2924477327       15.7799700000  MEMB      9               0.0000000000
       966         9  CHL1      C6              7.3259871715       11.6425637242       15.6463200000  MEMB      9               0.0000000000
       967         9  CHL1      H6              7.0114788368       12.1663519244       16.5610500000  MEMB      9               0.0000000000
       968         9  CHL1      C7              7.2753933347       12.3675655119       14.3456100000  MEMB      9               0.0000000000
       969         9  CHL1      H7A             6.4256647654       13.0832932376       14.3412900000  MEMB      9               0.0000000000
       970         9  CHL1      H7B             8.1840166916       12.9519640262       14.0863800000  MEMB      9               0.0000000000
       971         9  CHL1      C8              7.0912070173       11.3905364327       13.1923500000  MEMB      9               0.0000000000
       972         9  CHL1      H8              6.0604820868       10.9912711510       13.3042400000  MEMB      9               0.0000000000
       973         9  CHL1      C14             7.2229810557       12.0669915892       11.8725800000  MEMB      9               0.0000000000
       974         9  CHL1      H14             8.2459263766       12.5004328518       11.8780800000  MEMB      9               0.0000000000
       975         9  CHL1      C15             6.1645112843       13.2154582777       11.5567400000  MEMB      9               0.0000000000
       976         9  CHL1      H15A            5.1447662959       12.8890379002       11.8532200000  MEMB      9               0.0000000000
       977         9  CHL1      H15B            6.4072067012       14.1213518756       12.1523700000  MEMB      9               0.0000000000
       978         9  CHL1      C16             6.2549695208       13.3558166118        9.9864700000  MEMB      9               0.0000000000
       979         9  CHL1      H16A            5.2478153491       13.0628178716        9.6202400000  MEMB      9               0.0000000000
       980         9  CHL1      H16B            6.5107501683       14.3943599788        9.6859200000  MEMB      9               0.0000000000
       981         9  CHL1      C17             7.1964441587       12.1663688245        9.5055800000  MEMB      9               0.0000000000
       982         9  CHL1      H17             8.2006998535       12.6389004181        9.5556600000  MEMB      9               0.0000000000
       983         9  CHL1      C13             7.2530549933       11.0904263889       10.6574400000  MEMB      9               0.0000000000
       984         9  CHL1      C18             5.8415277776       10.3754101509       10.6044900000  MEMB      9               0.0000000000
       985         9  CHL1      H18A            5.7905999062        9.5384172882        9.8756800000  MEMB      9               0.0000000000
       986         9  CHL1      H18B            5.4406105910        9.9415656691       11.5454300000  MEMB      9               0.0000000000
       987         9  CHL1      H18C            5.0337632204       11.0917526015       10.3424100000  MEMB      9               0.0000000000
       988         9  CHL1      C12             8.4079594210       10.2135816906       10.6888100000  MEMB      9               0.0000000000
       989         9  CHL1      H12A            8.4468963088        9.5565272806        9.7937700000  MEMB      9               0.0000000000
       990         9  CHL1      H12B            9.3736072958       10.7607488195       10.7382600000  MEMB      9               0.0000000000
       991         9  CHL1      C11             8.3528723536        9.3804189179       11.9327700000  MEMB      9               0.0000000000
       992         9  CHL1      H11A            7.4718938974        8.7164964634       11.8008400000  MEMB      9               0.0000000000
       993         9  CHL1      H11B            9.2909912396        8.7926435032       12.0265000000  MEMB      9               0.0000000000
       994         9  CHL1      C9              8.1251662149       10.2579490633       13.2787700000  MEMB      9               0.0000000000
       995         9  CHL1      H9              9.0700783713       10.8382230871       13.3477600000  MEMB      9               0.0000000000
       996         9  CHL1      C10             8.0110347915        9.4489752660       14.5749000000  MEMB      9               0.0000000000
       997         9  CHL1      C19             6.9019623468        8.3235013444       14.3806200000  MEMB      9               0.0000000000
       998         9  CHL1      H19A            7.1131674193        7.4442150343       13.7351900000  MEMB      9               0.0000000000
       999         9  CHL1      H19B            6.4583441465        7.9235462538       15.3174000000  MEMB      9               0.0000000000
      1000         9  CHL1      H19C            5.9971692809        8.8895281359       14.0719500000  MEMB      9               0.0000000000
      1001         9  CHL1      C1              9.4172207762        8.8960297412       14.8601200000  MEMB      9               0.0000000000
      1002         9  CHL1      H1A             9.6358321239        8.1326490530       14.0830800000  MEMB      9               0.0000000000
      1003         9  CHL1      H1B            10.1488716201        9.7046000257       14.6474500000  MEMB      9               0.0000000000
      1004         9  CHL1      C2              9.6263855885        8.1575992788       16.2561900000  MEMB      9               0.0000000000
      1005         9  CHL1      H2A            10.7091848786        7.9291058129       16.3543800000  MEMB      9               0.0000000000
      1006         9  CHL1      H2B             8.9608390045        7.2717444045       16.1747600000  MEMB      9               0.0000000000
      1007         9  CHL1      C20             6.8449246890       11.6536076013        8.0120400000  MEMB      9               0.0000000000
      1008         9  CHL1      H20             6.0074490701       10.9237987890        8.0304400000  MEMB      9               0.0000000000
      1009         9  CHL1      C21             8.1025830671       10.9346490984        7.4054500000  MEMB      9               0.0000000000
      1010         9  CHL1      H21A            8.2417192438        9.8844349817        7.7401100000  MEMB      9               0.0000000000
      1011         9  CHL1      H21B            8.9846246039       11.5773612049        7.6134000000  MEMB      9               0.0000000000
      1012         9  CHL1      H21C            8.1284824862       10.8836620080        6.2959200000  MEMB      9               0.0000000000
      1013         9  CHL1      C22             6.2042844559       12.8031121371        7.1579500000  MEMB      9               0.0000000000
      1014         9  CHL1      H22A            5.2094193662       13.1285537651        7.5303000000  MEMB      9               0.0000000000
      1015         9  CHL1      H22B            6.9221922187       13.6417253280        7.2830900000  MEMB      9               0.0000000000
      1016         9  CHL1      C23             5.9805210355       12.5997997220        5.6462500000  MEMB      9               0.0000000000
      1017         9  CHL1      H23A            6.9493208623       12.4767382170        5.1165200000  MEMB      9               0.0000000000
      1018         9  CHL1      H23B            5.4680424086       11.6161545935        5.5819600000  MEMB      9               0.0000000000
      1019         9  CHL1      C24             5.0825851200       13.7213305080        5.0513600000  MEMB      9               0.0000000000
      1020         9  CHL1      H24A            4.0860212388       13.6007398086        5.5274300000  MEMB      9               0.0000000000
      1021         9  CHL1      H24B            5.4067669028       14.6411868510        5.5834100000  MEMB      9               0.0000000000
      1022         9  CHL1      C25             5.0329004366       13.8092739958        3.5062100000  MEMB      9               0.0000000000
      1023         9  CHL1      H25             4.7867648293       12.7832473096        3.1583400000  MEMB      9               0.0000000000
      1024         9  CHL1      C26             3.9381746458       14.7288731858        3.0534900000  MEMB      9               0.0000000000
      1025         9  CHL1      H26A            3.0339264139       14.4337326615        3.6275700000  MEMB      9               0.0000000000
      1026         9  CHL1      H26B            4.1233464150       15.8172266724        3.1781000000  MEMB      9               0.0000000000
      1027         9  CHL1      H26C            3.6758674927       14.5601648047        1.9871600000  MEMB      9               0.0000000000
      1028         9  CHL1      C27             6.2853514068       14.2983005285        2.9018500000  MEMB      9               0.0000000000
      1029         9  CHL1      H27A            6.4973684734       13.9897767609        1.8558100000  MEMB      9               0.0000000000
      1030         9  CHL1      H27B            6.3864788912       15.4020688610        2.8257300000  MEMB      9               0.0000000000
      1031         9  CHL1      H27C            7.1746253725       13.9996195043        3.4970900000  MEMB      9               0.0000000000
      1032        10  CHL1      C3             14.4872924933        2.7325112283       17.3123750000  MEMB      10              0.0000000000
      1033        10  CHL1      H3             15.1350481363        3.6042335768       17.0782050000  MEMB      10              0.0000000000
      1034        10  CHL1      O3             14.5691368412        2.5791637396       18.6876250000  MEMB      10              0.0000000000
      1035        10  CHL1      H3'            14.1043080401        3.3252246525       19.0735450000  MEMB      10              0.0000000000
      1036        10  CHL1      C4             13.0798653843        3.1950278848       16.8559250000  MEMB      10              0.0000000000
      1037        10  CHL1      H4A            12.2326921782        2.5125842746       17.0815150000  MEMB      10              0.0000000000
      1038        10  CHL1      H4B            13.0007044239        4.1775587096       17.3684650000  MEMB      10              0.0000000000
      1039        10  CHL1      C5             13.0929018131        3.3483792635       15.2983050000  MEMB      10              0.0000000000
      1040        10  CHL1      C6             12.7571816497        4.5304888605       14.7809750000  MEMB      10              0.0000000000
      1041        10  CHL1      H6             12.4859063105        5.3598199644       15.4507650000  MEMB      10              0.0000000000
      1042        10  CHL1      C7             12.4882732419        4.7581564211       13.3088050000  MEMB      10              0.0000000000
      1043        10  CHL1      H7A            11.4741990203        5.1520430133       13.0833550000  MEMB      10              0.0000000000
      1044        10  CHL1      H7B            13.2782485420        5.4005852273       12.8643450000  MEMB      10              0.0000000000
      1045        10  CHL1      C8             12.5285778459        3.3669934677       12.5259950000  MEMB      10              0.0000000000
      1046        10  CHL1      H8             11.5966268362        2.8290404371       12.8023850000  MEMB      10              0.0000000000
      1047        10  CHL1      C14            12.6658702895        3.5929954167       11.0253950000  MEMB      10              0.0000000000
      1048        10  CHL1      H14            13.5894277832        4.1926515767       10.8778250000  MEMB      10              0.0000000000
      1049        10  CHL1      C15            11.4611201581        4.3431982245       10.3145550000  MEMB      10              0.0000000000
      1050        10  CHL1      H15A           10.5032401028        3.8234669803       10.5305650000  MEMB      10              0.0000000000
      1051        10  CHL1      H15B           11.4248949722        5.3909910732       10.6821750000  MEMB      10              0.0000000000
      1052        10  CHL1      C16            11.6992442064        4.1334353924        8.8102050000  MEMB      10              0.0000000000
      1053        10  CHL1      H16A           10.8336654707        3.6370494455        8.3216250000  MEMB      10              0.0000000000
      1054        10  CHL1      H16B           11.8978135915        5.0566850797        8.2249850000  MEMB      10              0.0000000000
      1055        10  CHL1      C17            12.8644723619        3.0553995880        8.7513550000  MEMB      10              0.0000000000
      1056        10  CHL1      H17            13.7531299858        3.7218578588        8.7721650000  MEMB      10              0.0000000000
      1057        10  CHL1      C13            12.8743884086        2.3751136958       10.0716350000  MEMB      10              0.0000000000
      1058        10  CHL1      C18            11.6053133682        1.4927989250       10.0150150000  MEMB      10              0.0000000000
      1059        10  CHL1      H18A           11.7834490940        0.6621976175        9.2989950000  MEMB      10              0.0000000000
      1060        10  CHL1      H18B           11.4012424647        0.9420640098       10.9580650000  MEMB      10              0.0000000000
      1061        10  CHL1      H18C           10.7100541778        2.0897125965        9.7383650000  MEMB      10              0.0000000000
      1062        10  CHL1      C12            14.1673802603        1.6310152556       10.5375050000  MEMB      10              0.0000000000
      1063        10  CHL1      H12A           14.1229003289        0.6453624691       10.0267850000  MEMB      10              0.0000000000
      1064        10  CHL1      H12B           15.0875779461        2.1954479364       10.2748850000  MEMB      10              0.0000000000
      1065        10  CHL1      C11            14.0413092427        1.2806105892       12.0928150000  MEMB      10              0.0000000000
      1066        10  CHL1      H11A           13.2752699220        0.4760636983       12.0786350000  MEMB      10              0.0000000000
      1067        10  CHL1      H11B           15.0009436270        0.7979922343       12.3765550000  MEMB      10              0.0000000000
      1068        10  CHL1      C9             13.7019970549        2.5517642352       12.9754150000  MEMB      10              0.0000000000
      1069        10  CHL1      H9             14.6309483341        3.1449785960       12.8359150000  MEMB      10              0.0000000000
      1070        10  CHL1      C10            13.5047084470        2.1315321206       14.4474350000  MEMB      10              0.0000000000
      1071        10  CHL1      C19            12.3877171169        1.0094743649       14.5947150000  MEMB      10              0.0000000000
      1072        10  CHL1      H19A           12.3768876362        0.5784684494       15.6186450000  MEMB      10              0.0000000000
      1073        10  CHL1      H19B           11.3854336059        1.2882207293       14.2047850000  MEMB      10              0.0000000000
      1074        10  CHL1      H19C           12.6924596137        0.2009925863       13.8962750000  MEMB      10              0.0000000000
      1075        10  CHL1      C1             14.8599747604        1.5988315413       14.9051950000  MEMB      10              0.0000000000
      1076        10  CHL1      H1A            14.9886546343        0.5739416348       14.4960950000  MEMB      10              0.0000000000
      1077        10  CHL1      H1B            15.7451358213        2.2588916446       14.7822050000  MEMB      10              0.0000000000
      1078        10  CHL1      C2             14.8380517506        1.5143015074       16.4926750000  MEMB      10              0.0000000000
      1079        10  CHL1      H2A            15.8335014037        1.0889813019       16.7426650000  MEMB      10              0.0000000000
      1080        10  CHL1      H2B            14.1848568741        0.6845856588       16.8379850000  MEMB      10              0.0000000000
      1081        10  CHL1      C20            13.0276732057        2.2724881473        7.3858950000  MEMB      10              0.0000000000
      1082        10  CHL1      H20            12.3138863849        1.4564045692        7.1433150000  MEMB      10              0.0000000000
      1083        10  CHL1      C21            14.3985325179        1.5662235900        7.4516750000  MEMB      10              0.0000000000
      1084        10  CHL1      H21A           15.1522876295        2.2082467598        7.9556350000  MEMB      10              0.0000000000
      1085        10  CHL1      H21B           14.8855474593        1.3546495855        6.4757750000  MEMB      10              0.0000000000
      1086        10  CHL1      H21C           14.2675921687        0.5885112485        7.9627950000  MEMB      10              0.0000000000
      1087        10  CHL1      C22            12.9371935606        3.2764815227        6.1913950000  MEMB      10              0.0000000000
      1088        10  CHL1      H22A           11.8940988230        3.6492619250        6.2768150000  MEMB      10              0.0000000000
      1089        10  CHL1      H22B           13.6112582424        4.1372971997        6.3887550000  MEMB      10              0.0000000000
      1090        10  CHL1      C23            13.2162108262        2.6827406668        4.8643250000  MEMB      10              0.0000000000
      1091        10  CHL1      H23A           12.9589642093        3.4965791612        4.1531250000  MEMB      10              0.0000000000
      1092        10  CHL1      H23B           14.3174458048        2.5404024164        4.8276450000  MEMB      10              0.0000000000
      1093        10  CHL1      C24            12.4155433874        1.4002202613        4.5215150000  MEMB      10              0.0000000000
      1094        10  CHL1      H24A           12.6999726456        0.5863531936        5.2222550000  MEMB      10              0.0000000000
      1095        10  CHL1      H24B           11.3353834117        1.6378725099        4.6268650000  MEMB      10              0.0000000000
      1096        10  CHL1      C25            12.6508870231        0.7353778122        3.1536550000  MEMB      10              0.0000000000
      1097        10  CHL1      H25            11.9186320089       -0.0984101787        3.0996850000  MEMB      10              0.0000000000
      1098        10  CHL1      C26            12.4218343155        1.5718850974        1.9082950000  MEMB      10              0.0000000000
      1099        10  CHL1      H26A           11.3474758480        1.8548352631        1.9121250000  MEMB      10              0.0000000000
      1100        10  CHL1      H26B           13.0971120820        2.4488643670        1.8122450000  MEMB      10              0.0000000000
      1101        10  CHL1      H26C           12.5926817373        0.9017914688        1.0387550000  MEMB      10              0.0000000000
      1102        10  CHL1      C27            14.1013661315        0.0571096880        2.9975750000  MEMB      10              0.0000000000
      1103        10  CHL1      H27A           14.8577114998        0.8355193317        3.2349450000  MEMB      10              0.0000000000
      1104        10  CHL1      H27B           14.1321415992       -0.7451235087        3.7655550000  MEMB      10              0.0000000000
      1105        10  CHL1      H27C           14.1485299288       -0.3288728126        1.9568550000  MEMB      10              0.0000000000
      1106        11  SOPE      N               1.4161402276      -16.0123042795       21.5049512979  MEMB      11              0.0000000000
      1107        11  SOPE      HN1             2.3243343063      -15.7336068060       21.9281666429  MEMB      11              0.0000000000
      1108        11  SOPE      HN2             1.3741961759      -16.9747203115       21.1130379696  MEMB      11              0.0000000000
      1109        11  SOPE      HN3             1.1390294483      -15.2956088708       20.8041252043  MEMB      11              0.0000000000
      1110        11  SOPE      C12             0.2573124651      -15.9412927197       22.4840882276  MEMB      11              0.0000000000
      1111        11  SOPE      H12A            0.7289725241      -15.4791209515       23.3775394323  MEMB      11              0.0000000000
      1112        11  SOPE      H12B            0.0453772222      -16.9891461141       22.7864254247  MEMB      11              0.0000000000
      1113        11  SOPE      C11            -1.0381080255      -15.3109354551       22.0185624517  MEMB      11              0.0000000000
      1114        11  SOPE      H11A           -1.8723241506      -15.5384061194       22.7161737834  MEMB      11              0.0000000000
      1115        11  SOPE      H11B           -1.4894833133      -15.9217591851       21.2077135675  MEMB      11              0.0000000000
      1116        11  SOPE      P              -0.2698556907      -13.3939162975       20.3741462457  MEMB      11              0.0000000000
      1117        11  SOPE      O13             1.2281242472      -13.3705674988       20.5225662188  MEMB      11              0.0000000000
      1118        11  SOPE      O14            -0.8847525587      -12.1035459963       20.0299916062  MEMB      11              0.0000000000
      1119        11  SOPE      O12            -0.8882002685      -13.8852434887       21.7346978406  MEMB      11              0.0000000000
      1120        11  SOPE      O11            -0.8919087673      -14.3949782658       19.3309961365  MEMB      11              0.0000000000
      1121        11  SOPE      C1             -0.1021738186      -15.4529522988       18.7362665225  MEMB      11              0.0000000000
      1122        11  SOPE      HA             -0.3357997237      -16.3893187471       19.2866824522  MEMB      11              0.0000000000
      1123        11  SOPE      HB              0.9862251245      -15.2386890608       18.7979106326  MEMB      11              0.0000000000
      1124        11  SOPE      C2             -0.4136340199      -15.3690932421       17.2035230622  MEMB      11              0.0000000000
      1125        11  SOPE      HS              0.1029922787      -16.1408475604       16.5937580394  MEMB      11              0.0000000000
      1126        11  SOPE      O21             0.0319851666      -14.0016840153       16.7847560113  MEMB      11              0.0000000000
      1127        11  SOPE      C21             1.2756984473      -14.0270141613       16.1710314357  MEMB      11              0.0000000000
      1128        11  SOPE      O22             1.9557624144      -15.0305835050       15.9657052404  MEMB      11              0.0000000000
      1129        11  SOPE      C22             1.6757758885      -12.6252656575       15.7228954333  MEMB      11              0.0000000000
      1130        11  SOPE      H2R             2.6452903258      -12.7513796549       15.1952042426  MEMB      11              0.0000000000
      1131        11  SOPE      H2S             1.8773193117      -11.8326903148       16.4749096865  MEMB      11              0.0000000000
      1132        11  SOPE      C3             -1.9377705140      -15.5750398494       17.0266651047  MEMB      11              0.0000000000
      1133        11  SOPE      HX             -2.4689331370      -15.1432921360       17.9017543800  MEMB      11              0.0000000000
      1134        11  SOPE      HY             -2.2611578754      -16.6373386953       16.9911322499  MEMB      11              0.0000000000
      1135        11  SOPE      O31            -2.3036361033      -15.0290259747       15.8165805741  MEMB      11              0.0000000000
      1136        11  SOPE      C31            -3.2014743053      -14.0747918892       15.7597616254  MEMB      11              0.0000000000
      1137        11  SOPE      O32            -3.9163782891      -13.7961200578       16.6996444297  MEMB      11              0.0000000000
      1138        11  SOPE      C32            -3.3354794698      -13.6145188347       14.3067066262  MEMB      11              0.0000000000
      1139        11  SOPE      H2X            -4.0041000483      -14.3579830506       13.8224253856  MEMB      11              0.0000000000
      1140        11  SOPE      H2Y            -2.3429375990      -13.5627201201       13.8102205418  MEMB      11              0.0000000000
      1141        11  SOPE      C23             0.5256167808      -11.9525362377       14.8782776378  MEMB      11              0.0000000000
      1142        11  SOPE      H3R             0.6969300625      -10.8552143018       14.8490012774  MEMB      11              0.0000000000
      1143        11  SOPE      H3S            -0.3871072107      -11.9556797140       15.5117171992  MEMB      11              0.0000000000
      1144        11  SOPE      C24             0.4293497932      -12.5231547831       13.4697150443  MEMB      11              0.0000000000
      1145        11  SOPE      H4R             0.1342389173      -13.5885917442       13.5796000814  MEMB      11              0.0000000000
      1146        11  SOPE      H4S            -0.4072072190      -11.9519648319       13.0133868845  MEMB      11              0.0000000000
      1147        11  SOPE      C25             1.6327155337      -12.3219471778       12.4806926795  MEMB      11              0.0000000000
      1148        11  SOPE      H5R             1.7504854061      -11.2377341700       12.2687180674  MEMB      11              0.0000000000
      1149        11  SOPE      H5S             2.4614145043      -12.8154816369       13.0320570033  MEMB      11              0.0000000000
      1150        11  SOPE      C26             1.4373610834      -13.1912493207       11.2468671052  MEMB      11              0.0000000000
      1151        11  SOPE      H6R             1.5772732759      -14.1938874932       11.7045377333  MEMB      11              0.0000000000
      1152        11  SOPE      H6S             0.3955732811      -13.0191973200       10.9013281863  MEMB      11              0.0000000000
      1153        11  SOPE      C27             2.3320324643      -12.9146656277       10.0361903788  MEMB      11              0.0000000000
      1154        11  SOPE      H7R             2.3939414796      -11.8121843202        9.9136198433  MEMB      11              0.0000000000
      1155        11  SOPE      H7S             3.3257255563      -13.2223324067       10.4263651668  MEMB      11              0.0000000000
      1156        11  SOPE      C28             1.9608163110      -13.5997138288        8.6961033011  MEMB      11              0.0000000000
      1157        11  SOPE      H8R             1.0653317001      -13.1629536086        8.2045053620  MEMB      11              0.0000000000
      1158        11  SOPE      H8S             2.7868727857      -13.2662516217        8.0322092869  MEMB      11              0.0000000000
      1159        11  SOPE      C29             2.0141414339      -15.0668989371        8.8496176587  MEMB      11              0.0000000000
      1160        11  SOPE      H91             3.0529022401      -15.3922352878        8.6910846862  MEMB      11              0.0000000000
      1161        11  SOPE      C210            1.0230587438      -15.9562446843        8.9628055788  MEMB      11              0.0000000000
      1162        11  SOPE      H101            1.3581106644      -16.9971261391        9.0824136982  MEMB      11              0.0000000000
      1163        11  SOPE      C211           -0.4698692946      -15.7276279317        8.9364610741  MEMB      11              0.0000000000
      1164        11  SOPE      H11R           -0.5276613456      -14.6743799278        9.2852443727  MEMB      11              0.0000000000
      1165        11  SOPE      H11S           -0.9677673014      -16.3213577491        9.7326425027  MEMB      11              0.0000000000
      1166        11  SOPE      C212           -1.2616071451      -15.8454195942        7.6442922901  MEMB      11              0.0000000000
      1167        11  SOPE      H12R           -0.8694664077      -15.1116217828        6.9080267629  MEMB      11              0.0000000000
      1168        11  SOPE      H12S           -2.3278342151      -15.6422352744        7.8813518386  MEMB      11              0.0000000000
      1169        11  SOPE      C213           -1.1087208772      -17.2221200764        6.9176166772  MEMB      11              0.0000000000
      1170        11  SOPE      H13R           -1.4257655670      -18.1328799441        7.4692684693  MEMB      11              0.0000000000
      1171        11  SOPE      H13S           -0.0181430108      -17.3999622693        6.8021468836  MEMB      11              0.0000000000
      1172        11  SOPE      C214           -1.6898467266      -17.3668371841        5.5006557611  MEMB      11              0.0000000000
      1173        11  SOPE      H14R           -2.7981852534      -17.3860610681        5.5750667863  MEMB      11              0.0000000000
      1174        11  SOPE      H14S           -1.2987793312      -18.3537461937        5.1729395889  MEMB      11              0.0000000000
      1175        11  SOPE      C215           -1.1703107361      -16.4323845114        4.4400795761  MEMB      11              0.0000000000
      1176        11  SOPE      H15R           -0.2175331071      -15.9918180509        4.8039985226  MEMB      11              0.0000000000
      1177        11  SOPE      H15S           -1.8601436372      -15.5815892327        4.2540722667  MEMB      11              0.0000000000
      1178        11  SOPE      C216           -1.0096263915      -16.8788882761        3.0228629771  MEMB      11              0.0000000000
      1179        11  SOPE      H16R           -2.0168199897      -17.1848018990        2.6674776091  MEMB      11              0.0000000000
      1180        11  SOPE      H16S           -0.2798693577      -17.7070718203        2.8968163023  MEMB      11              0.0000000000
      1181        11  SOPE      C217           -0.3613355837      -15.7652382335        2.1181840205  MEMB      11              0.0000000000
      1182        11  SOPE      H17R            0.7358459394      -15.6547873355        2.2535151403  MEMB      11              0.0000000000
      1183        11  SOPE      H17S           -0.9375835389      -14.8490850079        2.3690286630  MEMB      11              0.0000000000
      1184        11  SOPE      C218           -0.4881797065      -16.0420561659        0.5932486395  MEMB      11              0.0000000000
      1185        11  SOPE      H18R           -1.5712039596      -16.0573320894        0.3459710881  MEMB      11              0.0000000000
      1186        11  SOPE      H18S            0.0719966584      -16.9699593193        0.3492825749  MEMB      11              0.0000000000
      1187        11  SOPE      H18T           -0.0797256452      -15.2463238882       -0.0657641773  MEMB      11              0.0000000000
      1188        11  SOPE      C33            -4.1344678919      -12.3483166671       14.0455400101  MEMB      11              0.0000000000
      1189        11  SOPE      H3X            -3.4080974864      -11.5081345168       14.0172396646  MEMB      11              0.0000000000
      1190        11  SOPE      H3Y            -4.9653395981      -12.1278507357       14.7493638353  MEMB      11              0.0000000000
      1191        11  SOPE      C34            -4.7771727602      -12.3852054441       12.6983278438  MEMB      11              0.0000000000
      1192        11  SOPE      H4X            -5.2317635991      -11.3860885684       12.5267649143  MEMB      11              0.0000000000
      1193        11  SOPE      H4Y            -5.5562984944      -13.1766153558       12.6674299498  MEMB      11              0.0000000000
      1194        11  SOPE      C35            -3.8361134226      -12.6751639167       11.4497229216  MEMB      11              0.0000000000
      1195        11  SOPE      H5X            -4.5200584606      -12.8915628242       10.6013650571  MEMB      11              0.0000000000
      1196        11  SOPE      H5Y            -3.2613792232      -13.5965393423       11.6843907619  MEMB      11              0.0000000000
      1197        11  SOPE      C36            -2.9814082893      -11.3953443380       11.1710700337  MEMB      11              0.0000000000
      1198        11  SOPE      H6X            -2.2209650129      -11.2680115440       11.9709652072  MEMB      11              0.0000000000
      1199        11  SOPE      H6Y            -3.5864055472      -10.4650987890       11.1168247433  MEMB      11              0.0000000000
      1200        11  SOPE      C37            -2.1176747367      -11.4529653953        9.8717330068  MEMB      11              0.0000000000
      1201        11  SOPE      H7X            -2.7834552502      -11.8794770336        9.0912558356  MEMB      11              0.0000000000
      1202        11  SOPE      H7Y            -1.4093082637      -12.2852892837       10.0711704496  MEMB      11              0.0000000000
      1203        11  SOPE      C38            -1.5111125076      -10.0883818418        9.5332354123  MEMB      11              0.0000000000
      1204        11  SOPE      H8X            -0.5886518777      -10.0058307509       10.1468898465  MEMB      11              0.0000000000
      1205        11  SOPE      H8Y            -2.3178718823       -9.4022097052        9.8688359161  MEMB      11              0.0000000000
      1206        11  SOPE      C39            -1.1835687672      -10.0506072318        8.0069206425  MEMB      11              0.0000000000
      1207        11  SOPE      H9X            -2.0126066605      -10.2107243998        7.2848543786  MEMB      11              0.0000000000
      1208        11  SOPE      H9Y            -0.4789353147      -10.8819965159        7.7910396763  MEMB      11              0.0000000000
      1209        11  SOPE      C310           -0.4102634662       -8.7016887703        7.8029123893  MEMB      11              0.0000000000
      1210        11  SOPE      H10X           -0.9560794200       -7.8681060123        8.2943852205  MEMB      11              0.0000000000
      1211        11  SOPE      H10Y           -0.4032023613       -8.4270433403        6.7264169248  MEMB      11              0.0000000000
      1212        11  SOPE      C311            1.0329646155       -8.6797953724        8.3299667555  MEMB      11              0.0000000000
      1213        11  SOPE      H11X            1.0092858147       -8.7722194607        9.4368624389  MEMB      11              0.0000000000
      1214        11  SOPE      H11Y            1.4624068030       -7.6913409392        8.0600448387  MEMB      11              0.0000000000
      1215        11  SOPE      C312            2.0106580963       -9.6843095152        7.8472951650  MEMB      11              0.0000000000
      1216        11  SOPE      H12X            1.7530007155      -10.6649464476        8.3014807881  MEMB      11              0.0000000000
      1217        11  SOPE      H12Y            2.9900834748       -9.3409762498        8.2437416665  MEMB      11              0.0000000000
      1218        11  SOPE      C313            2.1752288852       -9.7962868139        6.3224786929  MEMB      11              0.0000000000
      1219        11  SOPE      H13X            2.7245968665       -8.9802191487        5.8061952391  MEMB      11              0.0000000000
      1220        11  SOPE      H13Y            1.1710800294       -9.9973857135        5.8917056412  MEMB      11              0.0000000000
      1221        11  SOPE      C314            2.9391187895      -11.0605143457        5.8509919194  MEMB      11              0.0000000000
      1222        11  SOPE      H14X            2.8730293393      -11.1327034950        4.7443113377  MEMB      11              0.0000000000
      1223        11  SOPE      H14Y            2.3837188945      -11.9127977950        6.2976061493  MEMB      11              0.0000000000
      1224        11  SOPE      C315            4.3918232519      -11.2380608455        6.2570876658  MEMB      11              0.0000000000
      1225        11  SOPE      H15X            4.4744118878      -11.1391030638        7.3605847234  MEMB      11              0.0000000000
      1226        11  SOPE      H15Y            5.0496223787      -10.4892396352        5.7662838801  MEMB      11              0.0000000000
      1227        11  SOPE      C316            4.9647526002      -12.6874113539        5.8968028400  MEMB      11              0.0000000000
      1228        11  SOPE      H16X            4.1160926591      -13.3903151445        5.7552981404  MEMB      11              0.0000000000
      1229        11  SOPE      H16Y            5.5919765387      -12.9986391080        6.7593857916  MEMB      11              0.0000000000
      1230        11  SOPE      C317            5.9470747269      -12.6436415904        4.6887575348  MEMB      11              0.0000000000
      1231        11  SOPE      H17X            6.0914283999      -13.6939904577        4.3567183060  MEMB      11              0.0000000000
      1232        11  SOPE      H17Y            6.9378932469      -12.2000151587        4.9249662954  MEMB      11              0.0000000000
      1233        11  SOPE      C318            5.2921600269      -11.8933494261        3.5071879771  MEMB      11              0.0000000000
      1234        11  SOPE      H18X            5.7986984908      -12.2273975929        2.5765151530  MEMB      11              0.0000000000
      1235        11  SOPE      H18Y            5.3719035007      -10.7867584435        3.5656574921  MEMB      11              0.0000000000
      1236        11  SOPE      H18Z            4.2306099420      -12.2017115893        3.3960770313  MEMB      11              0.0000000000
      1237        12  OSM       N             -10.2927259492       -9.2943686273       21.4630007003  MEMB      12              0.0000000000
      1238        12  OSM       C15            -9.2877222111      -10.3108742609       21.7480362938  MEMB      12              0.0000000000
      1239        12  OSM       H15A           -9.3374614762      -10.5865245417       22.7910812680  MEMB      12              0.0000000000
      1240        12  OSM       H15B           -8.3188377925      -10.1277261903       21.3074457306  MEMB      12              0.0000000000
      1241        12  OSM       H15C           -9.5966765296      -11.1437694145       21.1338433838  MEMB      12              0.0000000000
      1242        12  OSM       C14           -10.0736528219       -8.1993699588       22.4273999894  MEMB      12              0.0000000000
      1243        12  OSM       H14A          -10.4226730840       -8.5459888197       23.3888781597  MEMB      12              0.0000000000
      1244        12  OSM       H14B          -10.6243505792       -7.2823405500       22.2784409409  MEMB      12              0.0000000000
      1245        12  OSM       H14C           -9.0235012737       -7.9963137721       22.5768991521  MEMB      12              0.0000000000
      1246        12  OSM       C13            -9.9646848521       -8.6782694154       20.0920455867  MEMB      12              0.0000000000
      1247        12  OSM       H13A          -10.3074871733       -9.3464041386       19.3158481552  MEMB      12              0.0000000000
      1248        12  OSM       H13B           -8.8900610680       -8.5841772116       20.0397924837  MEMB      12              0.0000000000
      1249        12  OSM       H13C          -10.4733890155       -7.7268745255       20.0423691550  MEMB      12              0.0000000000
      1250        12  OSM       C12           -11.7108262110       -9.8906458845       21.4371065647  MEMB      12              0.0000000000
      1251        12  OSM       H12A          -11.7142363448      -10.8396642870       21.9526185625  MEMB      12              0.0000000000
      1252        12  OSM       H12B          -11.8433707473      -10.1919521390       20.4084927203  MEMB      12              0.0000000000
      1253        12  OSM       C11           -12.8953900974       -8.9544293371       21.8700797000  MEMB      12              0.0000000000
      1254        12  OSM       H11A          -12.9261417920       -8.7016722867       22.9515088928  MEMB      12              0.0000000000
      1255        12  OSM       H11B          -13.7877546466       -9.5701923161       21.6275051053  MEMB      12              0.0000000000
      1256        12  OSM       P             -14.3350470414       -7.2339345053       20.4567832751  MEMB      12              0.0000000000
      1257        12  OSM       O13           -15.5610356783       -7.6069132734       21.1863502947  MEMB      12              0.0000000000
      1258        12  OSM       O14           -14.3147492963       -5.8471687448       19.9342702748  MEMB      12              0.0000000000
      1259        12  OSM       O11           -14.3936706509       -8.1448458193       19.1601130620  MEMB      12              0.0000000000
      1260        12  OSM       O12           -12.9567787896       -7.6705838997       21.2248142587  MEMB      12              0.0000000000
      1261        12  OSM       C1S           -13.2076659123       -8.3081057850       18.3626824912  MEMB      12              0.0000000000
      1262        12  OSM       H1S           -12.4948464823       -9.0428775723       18.7943302365  MEMB      12              0.0000000000
      1263        12  OSM       H1T           -12.5859895936       -7.3988646496       18.2173546076  MEMB      12              0.0000000000
      1264        12  OSM       NF            -12.2102559612       -9.2233896163       16.3467794860  MEMB      12              0.0000000000
      1265        12  OSM       HNF           -11.8656470697       -8.5660935141       15.6810350915  MEMB      12              0.0000000000
      1266        12  OSM       C2S           -13.4622938230       -8.9342501141       16.9719655759  MEMB      12              0.0000000000
      1267        12  OSM       H2S           -14.0357157351       -9.8682605214       17.1539899740  MEMB      12              0.0000000000
      1268        12  OSM       C3S           -14.2179427685       -7.9869310076       16.0467025385  MEMB      12              0.0000000000
      1269        12  OSM       H3S           -13.6603308580       -7.0336093857       15.9260046896  MEMB      12              0.0000000000
      1270        12  OSM       O3            -15.5416666947       -7.7432969474       16.5569790789  MEMB      12              0.0000000000
      1271        12  OSM       HO3           -15.5867882639       -8.3031257693       17.3355389845  MEMB      12              0.0000000000
      1272        12  OSM       C4S           -14.3889842388       -8.6481758422       14.7388537994  MEMB      12              0.0000000000
      1273        12  OSM       H4S           -14.8840379835       -9.6301169163       14.7121435856  MEMB      12              0.0000000000
      1274        12  OSM       C5S           -13.7634161978       -8.2095903615       13.5655507815  MEMB      12              0.0000000000
      1275        12  OSM       H5S           -13.0517309647       -7.3797932736       13.6877838467  MEMB      12              0.0000000000
      1276        12  OSM       C6S           -13.8846612349       -8.9005828457       12.1966061465  MEMB      12              0.0000000000
      1277        12  OSM       H6S           -13.5137637310       -9.9423522381       12.3037158068  MEMB      12              0.0000000000
      1278        12  OSM       H6T           -13.1840987098       -8.4844816571       11.4413619181  MEMB      12              0.0000000000
      1279        12  OSM       C7S           -15.2174459747       -8.8589286866       11.5024045278  MEMB      12              0.0000000000
      1280        12  OSM       H7S           -15.4287650757       -7.8319446034       11.1350237006  MEMB      12              0.0000000000
      1281        12  OSM       H7T           -16.0242868370       -9.0452270807       12.2430950907  MEMB      12              0.0000000000
      1282        12  OSM       C8S           -15.3388311555       -9.9369070677       10.3298728376  MEMB      12              0.0000000000
      1283        12  OSM       H8S           -15.3446267389      -10.8918488578       10.8976525677  MEMB      12              0.0000000000
      1284        12  OSM       H8T           -14.4343179502       -9.9817190607        9.6863138245  MEMB      12              0.0000000000
      1285        12  OSM       C9S           -16.6733954353      -10.0761574467        9.5426671368  MEMB      12              0.0000000000
      1286        12  OSM       H9S           -17.4843248481      -10.0125853397       10.2994196871  MEMB      12              0.0000000000
      1287        12  OSM       H9T           -16.6511669431      -11.1139503439        9.1466716288  MEMB      12              0.0000000000
      1288        12  OSM       C10S          -16.8134952814       -8.9351794118        8.4595045345  MEMB      12              0.0000000000
      1289        12  OSM       H10S          -16.5757573021       -7.9194231082        8.8416573880  MEMB      12              0.0000000000
      1290        12  OSM       H10T          -17.8556177043       -8.9291041573        8.0744536426  MEMB      12              0.0000000000
      1291        12  OSM       C11S          -15.8374224071       -9.0586313649        7.2427518483  MEMB      12              0.0000000000
      1292        12  OSM       H11S          -14.7503623120       -9.0530146815        7.4720766205  MEMB      12              0.0000000000
      1293        12  OSM       H11T          -16.0506171749       -8.2810279568        6.4784212412  MEMB      12              0.0000000000
      1294        12  OSM       C12S          -16.1050352886      -10.3823220713        6.4680260756  MEMB      12              0.0000000000
      1295        12  OSM       H12S          -17.0943934679      -10.4192338920        5.9639140462  MEMB      12              0.0000000000
      1296        12  OSM       H12T          -16.0410751385      -11.2613340793        7.1444639956  MEMB      12              0.0000000000
      1297        12  OSM       C13S          -15.0236784418      -10.6140139879        5.3417605046  MEMB      12              0.0000000000
      1298        12  OSM       H13S          -15.0005206480      -11.7183122421        5.2221369473  MEMB      12              0.0000000000
      1299        12  OSM       H13T          -14.0021006268      -10.3232250276        5.6675547575  MEMB      12              0.0000000000
      1300        12  OSM       C14S          -15.4171854834       -9.8922739719        3.9738464252  MEMB      12              0.0000000000
      1301        12  OSM       H14S          -15.4977168476       -8.8005686247        4.1636242956  MEMB      12              0.0000000000
      1302        12  OSM       H14T          -16.3942858030      -10.2759149532        3.6099566175  MEMB      12              0.0000000000
      1303        12  OSM       C15S          -14.4833634087      -10.0082298554        2.7703745772  MEMB      12              0.0000000000
      1304        12  OSM       H15S          -13.4737527960       -9.6246295011        3.0308699906  MEMB      12              0.0000000000
      1305        12  OSM       H15T          -14.8462070120       -9.3889400871        1.9223502879  MEMB      12              0.0000000000
      1306        12  OSM       C16S          -14.1851326443      -11.4486358865        2.2149540317  MEMB      12              0.0000000000
      1307        12  OSM       H16S          -15.1761197919      -11.8428987712        1.9037914773  MEMB      12              0.0000000000
      1308        12  OSM       H16T          -13.7600779056      -12.0057198911        3.0771067114  MEMB      12              0.0000000000
      1309        12  OSM       C17S          -13.1643358815      -11.5387898290        1.1113788713  MEMB      12              0.0000000000
      1310        12  OSM       H17S          -13.4117765136      -11.0612348660        0.1392505596  MEMB      12              0.0000000000
      1311        12  OSM       H17T          -13.0258062804      -12.6187517205        0.8904432660  MEMB      12              0.0000000000
      1312        12  OSM       C18S          -11.7677579154      -10.9758994138        1.5867235147  MEMB      12              0.0000000000
      1313        12  OSM       H18S          -11.6564247080      -11.1684727133        2.6752268076  MEMB      12              0.0000000000
      1314        12  OSM       H18T          -11.6782138313       -9.8723444572        1.4946949184  MEMB      12              0.0000000000
      1315        12  OSM       H18U          -10.9043068863      -11.4807368495        1.1030781938  MEMB      12              0.0000000000
      1316        12  OSM       C1F           -11.4193781962      -10.2697658759       16.6507832872  MEMB      12              0.0000000000
      1317        12  OSM       OF            -11.7441602034      -11.2789605832       17.3054570964  MEMB      12              0.0000000000
      1318        12  OSM       C2F           -10.0783000718      -10.2315394905       16.0938907394  MEMB      12              0.0000000000
      1319        12  OSM       H2F            -9.2081522851      -10.4174656255       16.7591690591  MEMB      12              0.0000000000
      1320        12  OSM       H2G            -9.9256072521       -9.2918273878       15.5212240887  MEMB      12              0.0000000000
      1321        12  OSM       C3F            -9.9311266088      -11.2331202596       14.9580859217  MEMB      12              0.0000000000
      1322        12  OSM       H3F            -9.9620124140      -12.2986107674       15.2712901682  MEMB      12              0.0000000000
      1323        12  OSM       H3G            -8.9320715214      -11.2028131705       14.4730176432  MEMB      12              0.0000000000
      1324        12  OSM       C4F           -11.0375061326      -11.2029163898       13.8479588707  MEMB      12              0.0000000000
      1325        12  OSM       H4F           -10.8359771412      -10.2038995676       13.4056100832  MEMB      12              0.0000000000
      1326        12  OSM       H4G           -12.0440916868      -11.2913317658       14.3097911544  MEMB      12              0.0000000000
      1327        12  OSM       C5F           -10.8701840553      -12.2588299665       12.7647971905  MEMB      12              0.0000000000
      1328        12  OSM       H5F           -11.9430140806      -12.4990083272       12.6045766498  MEMB      12              0.0000000000
      1329        12  OSM       H5G           -10.2710549834      -13.1573526628       13.0256081702  MEMB      12              0.0000000000
      1330        12  OSM       C6F           -10.3241723496      -11.6492220918       11.4666681487  MEMB      12              0.0000000000
      1331        12  OSM       H6F           -10.2865225354      -12.5205203030       10.7783781912  MEMB      12              0.0000000000
      1332        12  OSM       H6G            -9.2627893810      -11.3298831347       11.5428926266  MEMB      12              0.0000000000
      1333        12  OSM       C7F           -11.0728578810      -10.5187873382       10.7280381076  MEMB      12              0.0000000000
      1334        12  OSM       H7F           -10.7994245075       -9.6659039015       11.3854154764  MEMB      12              0.0000000000
      1335        12  OSM       H7G           -12.0699751410      -10.9882084249       10.8684722150  MEMB      12              0.0000000000
      1336        12  OSM       C8F           -10.5109536857      -10.2061458710        9.3846314963  MEMB      12              0.0000000000
      1337        12  OSM       H8F           -10.1435298707      -11.1560781139        8.9408415510  MEMB      12              0.0000000000
      1338        12  OSM       H8G            -9.5182539690       -9.7527196151        9.5926533161  MEMB      12              0.0000000000
      1339        12  OSM       C9F           -11.4021208139       -9.3850155367        8.4368012871  MEMB      12              0.0000000000
      1340        12  OSM       H9F           -12.2924024148       -9.9601224412        8.1424364218  MEMB      12              0.0000000000
      1341        12  OSM       C10F          -11.1373955486       -8.1370116628        7.9314603500  MEMB      12              0.0000000000
      1342        12  OSM       H10F          -11.8277808837       -7.5831628659        7.2782987476  MEMB      12              0.0000000000
      1343        12  OSM       C11F           -9.9387554034       -7.2905570778        8.1268108936  MEMB      12              0.0000000000
      1344        12  OSM       H11F           -9.3541310083       -7.6913597887        8.9823178863  MEMB      12              0.0000000000
      1345        12  OSM       H11G          -10.2445058464       -6.2422641840        8.3315543370  MEMB      12              0.0000000000
      1346        12  OSM       C12F           -9.0484703624       -7.2927410590        6.9232376100  MEMB      12              0.0000000000
      1347        12  OSM       H12F           -8.8034472260       -8.3716097064        6.8216161588  MEMB      12              0.0000000000
      1348        12  OSM       H12G           -8.0679488889       -6.8220620653        7.1498654321  MEMB      12              0.0000000000
      1349        12  OSM       C13F           -9.5538988007       -6.5674860072        5.6588204564  MEMB      12              0.0000000000
      1350        12  OSM       H13F           -9.4375383279       -5.4667366430        5.7543839211  MEMB      12              0.0000000000
      1351        12  OSM       H13G          -10.6306265087       -6.7975691458        5.5103616866  MEMB      12              0.0000000000
      1352        12  OSM       C14F           -8.7719082204       -7.0965812617        4.4018723374  MEMB      12              0.0000000000
      1353        12  OSM       H14F           -8.9813948433       -8.1825259393        4.2962317298  MEMB      12              0.0000000000
      1354        12  OSM       H14G           -7.7101338430       -6.9163537316        4.6747724526  MEMB      12              0.0000000000
      1355        12  OSM       C15F           -8.9372153705       -6.2941641826        3.1651783119  MEMB      12              0.0000000000
      1356        12  OSM       H15F           -8.1152649643       -6.4806784695        2.4413464781  MEMB      12              0.0000000000
      1357        12  OSM       H15G           -8.9302290243       -5.2044576448        3.3815380676  MEMB      12              0.0000000000
      1358        12  OSM       C16F          -10.2696761193       -6.6793296308        2.3509072537  MEMB      12              0.0000000000
      1359        12  OSM       H16F          -11.1210110928       -6.2457650978        2.9179801751  MEMB      12              0.0000000000
      1360        12  OSM       H16G          -10.3359871057       -7.7880703002        2.3260494856  MEMB      12              0.0000000000
      1361        12  OSM       C17F          -10.3038666907       -6.3292119813        0.8566983254  MEMB      12              0.0000000000
      1362        12  OSM       H17F          -11.1820144338       -6.6966947029        0.2838684796  MEMB      12              0.0000000000
      1363        12  OSM       H17G           -9.4377526303       -6.8225949474        0.3660435497  MEMB      12              0.0000000000
      1364        12  OSM       C18F          -10.1647554983       -4.8516629782        0.7119017609  MEMB      12              0.0000000000
      1365        12  OSM       H18F           -9.1208781140       -4.4751313776        0.7654278451  MEMB      12              0.0000000000
      1366        12  OSM       H18G          -10.8044262348       -4.4231656833        1.5128593445  MEMB      12              0.0000000000
      1367        12  OSM       H18H          -10.5629939114       -4.3675398026       -0.2053498014  MEMB      12              0.0000000000
      1368        13  POPC      N              -4.5055321810       15.8150907416       17.4343293080  MEMB      13              0.0000000000
      1369        13  POPC      C12            -4.0472702112       16.4264784047       18.7703900897  MEMB      13              0.0000000000
      1370        13  POPC      H12A           -4.8754496726       16.3690683061       19.4612033577  MEMB      13              0.0000000000
      1371        13  POPC      H12B           -3.9590494030       17.4914632892       18.6141073375  MEMB      13              0.0000000000
      1372        13  POPC      C13            -5.0223693721       14.4181954934       17.7265655636  MEMB      13              0.0000000000
      1373        13  POPC      H13A           -5.5849760793       13.9675026507       16.9223580593  MEMB      13              0.0000000000
      1374        13  POPC      H13B           -4.2374803907       13.7419097257       18.0315029372  MEMB      13              0.0000000000
      1375        13  POPC      H13C           -5.6420689354       14.5210872400       18.6050790094  MEMB      13              0.0000000000
      1376        13  POPC      C14            -5.5650097069       16.6845910481       16.9414336479  MEMB      13              0.0000000000
      1377        13  POPC      H14A           -6.2482592666       16.2874742023       16.2053166439  MEMB      13              0.0000000000
      1378        13  POPC      H14B           -6.2513739744       16.8584028227       17.7569661213  MEMB      13              0.0000000000
      1379        13  POPC      H14C           -5.3010666294       17.6565063019       16.5514147036  MEMB      13              0.0000000000
      1380        13  POPC      C15            -3.4015726800       15.8808794231       16.4318635557  MEMB      13              0.0000000000
      1381        13  POPC      H15A           -2.5532585563       15.3307294226       16.8114661553  MEMB      13              0.0000000000
      1382        13  POPC      H15B           -3.1545414506       16.9234853623       16.2964077279  MEMB      13              0.0000000000
      1383        13  POPC      H15C           -3.7123335603       15.4701110802       15.4826022406  MEMB      13              0.0000000000
      1384        13  POPC      C11            -2.7984121883       15.8799989054       19.4496005677  MEMB      13              0.0000000000
      1385        13  POPC      H11A           -2.6376121617       16.5008186699       20.3568200674  MEMB      13              0.0000000000
      1386        13  POPC      H11B           -1.9766781904       15.8604478247       18.7021435613  MEMB      13              0.0000000000
      1387        13  POPC      P              -1.9579534980       13.7799026655       20.5737137276  MEMB      13              0.0000000000
      1388        13  POPC      O13            -2.6052778716       12.5255683417       21.0159132689  MEMB      13              0.0000000000
      1389        13  POPC      O14            -1.0922451271       14.6132843197       21.5021254610  MEMB      13              0.0000000000
      1390        13  POPC      O12            -3.1241529960       14.5972951012       19.9207574211  MEMB      13              0.0000000000
      1391        13  POPC      O11            -1.2043362811       13.4190040263       19.2333073672  MEMB      13              0.0000000000
      1392        13  POPC      C1             -1.7873620812       12.6474596835       18.1883536586  MEMB      13              0.0000000000
      1393        13  POPC      HA             -2.5138010574       13.2756072773       17.6297499595  MEMB      13              0.0000000000
      1394        13  POPC      HB             -2.3276347908       11.8356309072       18.7206696788  MEMB      13              0.0000000000
      1395        13  POPC      C2             -0.6727685311       12.1206684577       17.1961628992  MEMB      13              0.0000000000
      1396        13  POPC      HS             -0.0084818933       11.4698397700       17.8040004983  MEMB      13              0.0000000000
      1397        13  POPC      O21             0.0895335439       13.2702395657       16.8509899629  MEMB      13              0.0000000000
      1398        13  POPC      C21             1.1924049582       13.1428082667       16.0282379532  MEMB      13              0.0000000000
      1399        13  POPC      O22             1.4655010886       12.1218305821       15.4356258570  MEMB      13              0.0000000000
      1400        13  POPC      C22             1.7903012175       14.4809189689       15.8760932989  MEMB      13              0.0000000000
      1401        13  POPC      H2R             2.7766322906       14.4311773601       15.3671750007  MEMB      13              0.0000000000
      1402        13  POPC      H2S             2.0117374405       14.8688427625       16.8933456994  MEMB      13              0.0000000000
      1403        13  POPC      C3             -1.2861768777       11.3946417507       15.9491578541  MEMB      13              0.0000000000
      1404        13  POPC      HX             -1.9354507271       10.5592259305       16.2880454986  MEMB      13              0.0000000000
      1405        13  POPC      HY             -0.5122964001       11.0834994558       15.2152501194  MEMB      13              0.0000000000
      1406        13  POPC      O31            -2.1888231281       12.3222670173       15.3812307424  MEMB      13              0.0000000000
      1407        13  POPC      C31            -2.8979376631       11.7628840523       14.4103751455  MEMB      13              0.0000000000
      1408        13  POPC      O32            -2.7776217294       10.6653253169       13.9522961163  MEMB      13              0.0000000000
      1409        13  POPC      C32            -4.0019792071       12.7926682281       13.9619190480  MEMB      13              0.0000000000
      1410        13  POPC      H2X            -4.2383074981       13.3211546227       14.9101656582  MEMB      13              0.0000000000
      1411        13  POPC      H2Y            -4.8499683011       12.1859767734       13.5783034983  MEMB      13              0.0000000000
      1412        13  POPC      C23             0.7634058994       15.3473434728       15.2226602060  MEMB      13              0.0000000000
      1413        13  POPC      H3R            -0.2584399622       15.3364108539       15.6585874628  MEMB      13              0.0000000000
      1414        13  POPC      H3S             0.7287500603       14.8905483433       14.2105051501  MEMB      13              0.0000000000
      1415        13  POPC      C24             1.2351000850       16.8111338449       15.1113083257  MEMB      13              0.0000000000
      1416        13  POPC      H4R             2.2595309395       16.8250397764       14.6815761693  MEMB      13              0.0000000000
      1417        13  POPC      H4S             1.3163042806       17.2510819501       16.1282509398  MEMB      13              0.0000000000
      1418        13  POPC      C25             0.2578272146       17.7037016753       14.2633497234  MEMB      13              0.0000000000
      1419        13  POPC      H5R             0.8356478013       18.6474694164       14.1646269189  MEMB      13              0.0000000000
      1420        13  POPC      H5S            -0.6395699877       18.0237663600       14.8348020521  MEMB      13              0.0000000000
      1421        13  POPC      C26            -0.0023451137       17.2024541499       12.8604581849  MEMB      13              0.0000000000
      1422        13  POPC      H6R            -0.5711795636       16.2488787570       12.8984385625  MEMB      13              0.0000000000
      1423        13  POPC      H6S             1.0098314301       17.1268973040       12.4086721853  MEMB      13              0.0000000000
      1424        13  POPC      C27            -0.7660179456       18.2396951070       12.0794853975  MEMB      13              0.0000000000
      1425        13  POPC      H7R            -0.9491309154       19.1642825027       12.6676427331  MEMB      13              0.0000000000
      1426        13  POPC      H7S            -1.7598296465       17.7518299434       11.9864967640  MEMB      13              0.0000000000
      1427        13  POPC      C28            -0.1529512891       18.4626676202       10.6168112180  MEMB      13              0.0000000000
      1428        13  POPC      H8R             0.0233194032       17.4335682059       10.2370683458  MEMB      13              0.0000000000
      1429        13  POPC      H8S             0.8345143400       18.9165989168       10.8474164692  MEMB      13              0.0000000000
      1430        13  POPC      C29            -1.0799834564       19.2636582263        9.6835752193  MEMB      13              0.0000000000
      1431        13  POPC      H91            -1.0720917853       20.3619171194        9.6222170593  MEMB      13              0.0000000000
      1432        13  POPC      C210           -2.0344229463       18.6687306703        8.8495285175  MEMB      13              0.0000000000
      1433        13  POPC      H101           -2.5598040619       19.4060503231        8.2247610436  MEMB      13              0.0000000000
      1434        13  POPC      C211           -2.2743881174       17.1560783675        8.7350030347  MEMB      13              0.0000000000
      1435        13  POPC      H11R           -3.3671571381       16.9643983116        8.7936191836  MEMB      13              0.0000000000
      1436        13  POPC      H11S           -1.8491525055       16.7213165822        9.6647754174  MEMB      13              0.0000000000
      1437        13  POPC      C212           -1.7241982412       16.4809086949        7.4383806868  MEMB      13              0.0000000000
      1438        13  POPC      H12R           -1.4547300428       15.5096061749        7.9055843160  MEMB      13              0.0000000000
      1439        13  POPC      H12S           -0.8699434866       17.0674781727        7.0377484196  MEMB      13              0.0000000000
      1440        13  POPC      C213           -2.7804871113       16.3816069911        6.4117006228  MEMB      13              0.0000000000
      1441        13  POPC      H13R           -3.8302321042       16.2712851882        6.7583778139  MEMB      13              0.0000000000
      1442        13  POPC      H13S           -2.5644665653       15.4386345858        5.8653868406  MEMB      13              0.0000000000
      1443        13  POPC      C214           -3.0410515371       17.5872407445        5.5899312802  MEMB      13              0.0000000000
      1444        13  POPC      H14R           -2.1695936933       18.2592113206        5.7426980207  MEMB      13              0.0000000000
      1445        13  POPC      H14S           -3.9540308325       18.1251643305        5.9237402542  MEMB      13              0.0000000000
      1446        13  POPC      C215           -3.2476627589       17.3891231430        4.0912774386  MEMB      13              0.0000000000
      1447        13  POPC      H15R           -3.7835830292       18.2921643080        3.7284732854  MEMB      13              0.0000000000
      1448        13  POPC      H15S           -3.8027845309       16.4470138431        3.8948319508  MEMB      13              0.0000000000
      1449        13  POPC      C216           -2.0128260970       17.4785307365        3.2148906877  MEMB      13              0.0000000000
      1450        13  POPC      H16R           -1.2377032474       18.1397916351        3.6578805179  MEMB      13              0.0000000000
      1451        13  POPC      H16S           -2.3599193021       18.1142295450        2.3724335340  MEMB      13              0.0000000000
      1452        13  POPC      C217           -1.3264167037       16.3013576691        2.5997954453  MEMB      13              0.0000000000
      1453        13  POPC      H17R           -2.1532373567       15.6066894146        2.3387886615  MEMB      13              0.0000000000
      1454        13  POPC      H17S           -0.7081439143       15.7709844578        3.3552851076  MEMB      13              0.0000000000
      1455        13  POPC      C218           -0.5487259032       16.6062491165        1.3835028843  MEMB      13              0.0000000000
      1456        13  POPC      H18R           -0.0098780479       17.5361860273        1.6648946923  MEMB      13              0.0000000000
      1457        13  POPC      H18S           -1.1394831882       16.9606541163        0.5118820978  MEMB      13              0.0000000000
      1458        13  POPC      H18T            0.1598677177       15.8585971553        0.9672899509  MEMB      13              0.0000000000
      1459        13  POPC      C33            -3.4420068055       13.7401180349       12.8966293064  MEMB      13              0.0000000000
      1460        13  POPC      H3X            -3.3873945932       13.2611156251       11.8956819760  MEMB      13              0.0000000000
      1461        13  POPC      H3Y            -2.4433890356       14.0749680077       13.2501247184  MEMB      13              0.0000000000
      1462        13  POPC      C34            -4.3220241271       15.0166482179       12.8031309174  MEMB      13              0.0000000000
      1463        13  POPC      H4X            -3.9973166160       15.7024035367       11.9915729580  MEMB      13              0.0000000000
      1464        13  POPC      H4Y            -4.2107394583       15.6305547070       13.7223998937  MEMB      13              0.0000000000
      1465        13  POPC      C35            -5.8261220191       14.7276693732       12.6441972524  MEMB      13              0.0000000000
      1466        13  POPC      H5X            -6.4255592946       15.6443860554       12.4581138719  MEMB      13              0.0000000000
      1467        13  POPC      H5Y            -6.1456175229       14.1926714028       13.5639913220  MEMB      13              0.0000000000
      1468        13  POPC      C36            -6.1556750268       13.8219055994       11.3969240332  MEMB      13              0.0000000000
      1469        13  POPC      H6X            -7.2333733992       13.5519953548       11.4028586702  MEMB      13              0.0000000000
      1470        13  POPC      H6Y            -5.5895213816       12.8662470285       11.4194618402  MEMB      13              0.0000000000
      1471        13  POPC      C37            -5.8129486844       14.5563488589       10.0271111070  MEMB      13              0.0000000000
      1472        13  POPC      H7X            -5.6370650988       15.6380715298       10.2094897971  MEMB      13              0.0000000000
      1473        13  POPC      H7Y            -6.7250993495       14.5548279400        9.3928401726  MEMB      13              0.0000000000
      1474        13  POPC      C38            -4.7093203370       13.8671087465        9.2435525971  MEMB      13              0.0000000000
      1475        13  POPC      H8X            -3.9436722187       13.5233343507        9.9715104912  MEMB      13              0.0000000000
      1476        13  POPC      H8Y            -4.2736058631       14.6364783759        8.5708378951  MEMB      13              0.0000000000
      1477        13  POPC      C39            -5.2582635817       12.6806179712        8.4715674485  MEMB      13              0.0000000000
      1478        13  POPC      H9X            -6.0741454675       13.0985138145        7.8438568575  MEMB      13              0.0000000000
      1479        13  POPC      H9Y            -5.7225243432       11.9586567383        9.1769430909  MEMB      13              0.0000000000
      1480        13  POPC      C310           -4.2315016198       11.8730999909        7.6355456682  MEMB      13              0.0000000000
      1481        13  POPC      H10X           -4.8955213593       11.2986561756        6.9548012660  MEMB      13              0.0000000000
      1482        13  POPC      H10Y           -3.7512711414       11.1286553772        8.3059944882  MEMB      13              0.0000000000
      1483        13  POPC      C311           -3.3425329309       12.7529014216        6.7052862380  MEMB      13              0.0000000000
      1484        13  POPC      H11X           -2.5766152127       13.2504464196        7.3378520311  MEMB      13              0.0000000000
      1485        13  POPC      H11Y           -3.9821704150       13.4505068441        6.1234517487  MEMB      13              0.0000000000
      1486        13  POPC      C312           -2.4274851608       12.0406222785        5.7329847676  MEMB      13              0.0000000000
      1487        13  POPC      H12X           -3.0592327945       11.4244942247        5.0580020140  MEMB      13              0.0000000000
      1488        13  POPC      H12Y           -1.7113042688       11.3777229314        6.2639939084  MEMB      13              0.0000000000
      1489        13  POPC      C313           -1.6240832520       13.0068254206        4.7400738685  MEMB      13              0.0000000000
      1490        13  POPC      H13X           -0.8159245435       13.5926882641        5.2278905511  MEMB      13              0.0000000000
      1491        13  POPC      H13Y           -2.3749255201       13.8000917626        4.5368858235  MEMB      13              0.0000000000
      1492        13  POPC      C314           -1.4731323205       12.4478556224        3.3953907600  MEMB      13              0.0000000000
      1493        13  POPC      H14X           -1.2017035619       13.2770401206        2.7075684501  MEMB      13              0.0000000000
      1494        13  POPC      H14Y           -2.4852766778       12.0786615128        3.1241331726  MEMB      13              0.0000000000
      1495        13  POPC      C315           -0.6392585067       11.1287430265        3.1799614336  MEMB      13              0.0000000000
      1496        13  POPC      H15X           -0.8437683902       10.7261064025        2.1648854553  MEMB      13              0.0000000000
      1497        13  POPC      H15Y           -1.0024777014       10.4014353508        3.9372041721  MEMB      13              0.0000000000
      1498        13  POPC      C316            0.8429610000       11.4152554471        3.3060621604  MEMB      13              0.0000000000
      1499        13  POPC      H16X            1.5438111779       10.5776293860        3.1023157293  MEMB      13              0.0000000000
      1500        13  POPC      H16Y            1.2840105244       11.8226326201        4.2408567634  MEMB      13              0.0000000000
      1501        13  POPC      H16Z            0.9428682612       12.1635405520        2.4909500992  MEMB      13              0.0000000000
      1502        14  CHL1      C3            -13.8694429857        6.5673673382       17.2891000000  MEMB      14              0.0000000000
      1503        14  CHL1      H3            -13.2025617730        7.4462174097       17.1578300000  MEMB      14              0.0000000000
      1504        14  CHL1      O3            -13.9507838143        6.3282944018       18.7109000000  MEMB      14              0.0000000000
      1505        14  CHL1      H3'           -14.1916338889        7.1036428495       19.2231700000  MEMB      14              0.0000000000
      1506        14  CHL1      C4            -15.2862639895        6.8678714876       16.7254500000  MEMB      14              0.0000000000
      1507        14  CHL1      H4A           -15.8969579793        5.9958935907       17.0433000000  MEMB      14              0.0000000000
      1508        14  CHL1      H4B           -15.6344937933        7.7631220094       17.2836400000  MEMB      14              0.0000000000
      1509        14  CHL1      C5            -15.3972477930        6.9855738689       15.2308400000  MEMB      14              0.0000000000
      1510        14  CHL1      C6            -15.9166956873        8.0643759897       14.5854400000  MEMB      14              0.0000000000
      1511        14  CHL1      H6            -16.3902060056        8.8877505128       15.1402800000  MEMB      14              0.0000000000
      1512        14  CHL1      C7            -16.0014955048        8.2481534025       13.1078500000  MEMB      14              0.0000000000
      1513        14  CHL1      H7A           -17.0382677700        8.5628881297       12.8621400000  MEMB      14              0.0000000000
      1514        14  CHL1      H7B           -15.2497382746        8.9887756813       12.7605000000  MEMB      14              0.0000000000
      1515        14  CHL1      C8            -15.7776808496        6.9338203741       12.2833600000  MEMB      14              0.0000000000
      1516        14  CHL1      H8            -16.6984030901        6.3124759599       12.2606400000  MEMB      14              0.0000000000
      1517        14  CHL1      C14           -15.3802827712        7.2738720398       10.8195600000  MEMB      14              0.0000000000
      1518        14  CHL1      H14           -14.4991239177        7.9177787811       11.0275800000  MEMB      14              0.0000000000
      1519        14  CHL1      C15           -16.3274478919        8.1820350914       10.0213800000  MEMB      14              0.0000000000
      1520        14  CHL1      H15A          -17.3550626711        7.7599096142       10.0333300000  MEMB      14              0.0000000000
      1521        14  CHL1      H15B          -16.3220824215        9.2441193441       10.3473700000  MEMB      14              0.0000000000
      1522        14  CHL1      C16           -15.8624702967        7.9349538528        8.5875100000  MEMB      14              0.0000000000
      1523        14  CHL1      H16A          -16.7722738207        7.7775742935        7.9696000000  MEMB      14              0.0000000000
      1524        14  CHL1      H16B          -15.2736347800        8.8052972315        8.2268300000  MEMB      14              0.0000000000
      1525        14  CHL1      C17           -14.9298686952        6.7568276484        8.5740900000  MEMB      14              0.0000000000
      1526        14  CHL1      H17           -13.9041714295        7.1808073214        8.6240200000  MEMB      14              0.0000000000
      1527        14  CHL1      C13           -15.0699800403        6.1383330474        9.9930300000  MEMB      14              0.0000000000
      1528        14  CHL1      C18           -16.2044101734        5.1241637418        9.9108900000  MEMB      14              0.0000000000
      1529        14  CHL1      H18A          -17.1689299309        5.5696936403        9.5860500000  MEMB      14              0.0000000000
      1530        14  CHL1      H18B          -15.8263830348        4.3976388696        9.1601700000  MEMB      14              0.0000000000
      1531        14  CHL1      H18C          -16.2912256958        4.5608630734       10.8645600000  MEMB      14              0.0000000000
      1532        14  CHL1      C12           -13.7635900759        5.6268431941       10.6180900000  MEMB      14              0.0000000000
      1533        14  CHL1      H12A          -13.2947042563        4.7645374327       10.0976200000  MEMB      14              0.0000000000
      1534        14  CHL1      H12B          -13.0165967802        6.4405442121       10.4988200000  MEMB      14              0.0000000000
      1535        14  CHL1      C11           -13.9408850599        5.1390242051       12.0142500000  MEMB      14              0.0000000000
      1536        14  CHL1      H11A          -14.6339493403        4.2712819222       11.9826400000  MEMB      14              0.0000000000
      1537        14  CHL1      H11B          -12.9322687251        4.8671840437       12.3925500000  MEMB      14              0.0000000000
      1538        14  CHL1      C9            -14.5558600586        6.2903537202       12.9609100000  MEMB      14              0.0000000000
      1539        14  CHL1      H9            -13.7973079338        7.1007105987       12.9134300000  MEMB      14              0.0000000000
      1540        14  CHL1      C10           -14.7628916047        5.8503233959       14.4415300000  MEMB      14              0.0000000000
      1541        14  CHL1      C19           -15.5667500943        4.5720013949       14.5225000000  MEMB      14              0.0000000000
      1542        14  CHL1      H19A          -15.0465008147        3.8032297288       13.9120400000  MEMB      14              0.0000000000
      1543        14  CHL1      H19B          -15.7081025951        4.2173853804       15.5658600000  MEMB      14              0.0000000000
      1544        14  CHL1      H19C          -16.5506541432        4.6209297374       14.0088200000  MEMB      14              0.0000000000
      1545        14  CHL1      C1            -13.3152851408        5.5901396563       15.0630600000  MEMB      14              0.0000000000
      1546        14  CHL1      H1A           -12.8624435838        4.7000232452       14.5762900000  MEMB      14              0.0000000000
      1547        14  CHL1      H1B           -12.7476372926        6.5351924374       14.9253300000  MEMB      14              0.0000000000
      1548        14  CHL1      C2            -13.3552582440        5.2938878453       16.6343400000  MEMB      14              0.0000000000
      1549        14  CHL1      H2A           -12.3678844833        5.1246701135       17.1147400000  MEMB      14              0.0000000000
      1550        14  CHL1      H2B           -13.9308870558        4.3923106749       16.9345500000  MEMB      14              0.0000000000
      1551        14  CHL1      C20           -14.9185376180        5.9931794372        7.2909700000  MEMB      14              0.0000000000
      1552        14  CHL1      H20           -15.8446080280        5.4061357225        7.1117800000  MEMB      14              0.0000000000
      1553        14  CHL1      C21           -13.7710232345        4.9499534174        7.2900300000  MEMB      14              0.0000000000
      1554        14  CHL1      H21A          -12.8385773252        5.4412840505        7.6414100000  MEMB      14              0.0000000000
      1555        14  CHL1      H21B          -13.5710848383        4.5139345080        6.2879200000  MEMB      14              0.0000000000
      1556        14  CHL1      H21C          -13.9039262670        4.0962091932        7.9884400000  MEMB      14              0.0000000000
      1557        14  CHL1      C22           -14.9784839999        6.9543743142        6.0741900000  MEMB      14              0.0000000000
      1558        14  CHL1      H22A          -15.9504888328        7.4885165732        6.1390900000  MEMB      14              0.0000000000
      1559        14  CHL1      H22B          -14.1827567535        7.7248868552        6.1605000000  MEMB      14              0.0000000000
      1560        14  CHL1      C23           -14.8325072117        6.2501537887        4.7185800000  MEMB      14              0.0000000000
      1561        14  CHL1      H23A          -13.8564206718        5.7195522172        4.7245200000  MEMB      14              0.0000000000
      1562        14  CHL1      H23B          -15.6569257135        5.5054472230        4.7257600000  MEMB      14              0.0000000000
      1563        14  CHL1      C24           -14.8473084917        7.2161103748        3.5305800000  MEMB      14              0.0000000000
      1564        14  CHL1      H24A          -15.8320560795        7.7299370857        3.5061800000  MEMB      14              0.0000000000
      1565        14  CHL1      H24B          -14.0092220956        7.9424362342        3.5967500000  MEMB      14              0.0000000000
      1566        14  CHL1      C25           -14.7604439527        6.4571234464        2.1469200000  MEMB      14              0.0000000000
      1567        14  CHL1      H25           -15.6487266412        5.7930949090        2.0811000000  MEMB      14              0.0000000000
      1568        14  CHL1      C26           -14.8780264618        7.4796031937        1.0000700000  MEMB      14              0.0000000000
      1569        14  CHL1      H26A          -14.9506820033        6.9732087345        0.0138600000  MEMB      14              0.0000000000
      1570        14  CHL1      H26B          -15.7806018794        8.1147651182        1.1275200000  MEMB      14              0.0000000000
      1571        14  CHL1      H26C          -14.0149627423        8.1791939877        1.0061000000  MEMB      14              0.0000000000
      1572        14  CHL1      C27           -13.3736394945        5.7830408808        2.0223000000  MEMB      14              0.0000000000
      1573        14  CHL1      H27A          -13.2309209839        5.3449241878        1.0113600000  MEMB      14              0.0000000000
      1574        14  CHL1      H27B          -12.5226338078        6.4606629915        2.2479900000  MEMB      14              0.0000000000
      1575        14  CHL1      H27C          -13.4503413692        4.9302138075        2.7302000000  MEMB      14              0.0000000000
      1576        15  CHL1      C3              7.4489325541      -13.7824157794       17.3012800000  MEMB      15              0.0000000000
      1577        15  CHL1      H3              7.6057833632      -14.8649218023       17.1066100000  MEMB      15              0.0000000000
      1578        15  CHL1      O3              7.5205712059      -13.4078028206       18.6987200000  MEMB      15              0.0000000000
      1579        15  CHL1      H3'             7.4571626396      -12.4544026870       18.7914400000  MEMB      15              0.0000000000
      1580        15  CHL1      C4              8.6068618626      -13.0948802439       16.5704800000  MEMB      15              0.0000000000
      1581        15  CHL1      H4A             8.6029911798      -12.0201895809       16.8521300000  MEMB      15              0.0000000000
      1582        15  CHL1      H4B             9.5987657727      -13.4434095429       16.9296000000  MEMB      15              0.0000000000
      1583        15  CHL1      C5              8.5534467239      -13.1271560779       15.1211200000  MEMB      15              0.0000000000
      1584        15  CHL1      C6              9.6040483756      -13.5461691916       14.3653600000  MEMB      15              0.0000000000
      1585        15  CHL1      H6             10.5737955422      -13.6572985917       14.8725500000  MEMB      15              0.0000000000
      1586        15  CHL1      C7              9.6662775331      -13.5618569435       12.8383400000  MEMB      15              0.0000000000
      1587        15  CHL1      H7A            10.5261862111      -12.9986787769       12.4167700000  MEMB      15              0.0000000000
      1588        15  CHL1      H7B             9.7228970447      -14.5917449999       12.4254800000  MEMB      15              0.0000000000
      1589        15  CHL1      C8              8.4437550446      -12.8476616005       12.3449800000  MEMB      15              0.0000000000
      1590        15  CHL1      H8              8.6135535805      -11.7523664197       12.4214100000  MEMB      15              0.0000000000
      1591        15  CHL1      C14             8.3608285496      -13.1056842891       10.7847400000  MEMB      15              0.0000000000
      1592        15  CHL1      H14             8.3252248237      -14.2004716997       10.5990100000  MEMB      15              0.0000000000
      1593        15  CHL1      C15             9.5716823452      -12.6904031969        9.8838500000  MEMB      15              0.0000000000
      1594        15  CHL1      H15A            9.9666266529      -11.6873637148       10.1526200000  MEMB      15              0.0000000000
      1595        15  CHL1      H15B           10.5151943313      -13.2769628582        9.8910200000  MEMB      15              0.0000000000
      1596        15  CHL1      C16             8.8859428957      -12.8086696006        8.5003300000  MEMB      15              0.0000000000
      1597        15  CHL1      H16A            9.0564319030      -11.8148500012        8.0338800000  MEMB      15              0.0000000000
      1598        15  CHL1      H16B            9.3884771192      -13.5699381590        7.8660900000  MEMB      15              0.0000000000
      1599        15  CHL1      C17             7.3882811731      -13.1534794640        8.6370800000  MEMB      15              0.0000000000
      1600        15  CHL1      H17             7.1531262900      -14.2372009037        8.7046800000  MEMB      15              0.0000000000
      1601        15  CHL1      C13             7.1059577291      -12.6069055505       10.0565000000  MEMB      15              0.0000000000
      1602        15  CHL1      C18             6.9758202507      -11.0816367711        9.9887100000  MEMB      15              0.0000000000
      1603        15  CHL1      H18A            6.9484775846      -10.5454472402       10.9613700000  MEMB      15              0.0000000000
      1604        15  CHL1      H18B            7.8347570303      -10.6088661679        9.4661800000  MEMB      15              0.0000000000
      1605        15  CHL1      H18C            6.0796740869      -10.6925757450        9.4596800000  MEMB      15              0.0000000000
      1606        15  CHL1      C12             5.9493074526      -13.2470093131       10.7682800000  MEMB      15              0.0000000000
      1607        15  CHL1      H12A            4.9989004169      -12.9617192259       10.2686300000  MEMB      15              0.0000000000
      1608        15  CHL1      H12B            6.1518534481      -14.3378757215       10.7107800000  MEMB      15              0.0000000000
      1609        15  CHL1      C11             5.9044610511      -12.9342979281       12.2644100000  MEMB      15              0.0000000000
      1610        15  CHL1      H11A            5.4463147057      -11.9506305145       12.5027700000  MEMB      15              0.0000000000
      1611        15  CHL1      H11B            5.1122488192      -13.6097802803       12.6523000000  MEMB      15              0.0000000000
      1612        15  CHL1      C9              7.1960586423      -13.2335579325       13.0325500000  MEMB      15              0.0000000000
      1613        15  CHL1      H9              7.1425532491      -14.3428813504       13.0032700000  MEMB      15              0.0000000000
      1614        15  CHL1      C10             7.1956321242      -12.7466083556       14.4877100000  MEMB      15              0.0000000000
      1615        15  CHL1      C19             6.9330389255      -11.2042476997       14.6658000000  MEMB      15              0.0000000000
      1616        15  CHL1      H19A            5.8476669073      -11.1110954901       14.8839900000  MEMB      15              0.0000000000
      1617        15  CHL1      H19B            7.4718226554      -10.7250349844       15.5110100000  MEMB      15              0.0000000000
      1618        15  CHL1      H19C            7.2062506649      -10.7352558637       13.6964000000  MEMB      15              0.0000000000
      1619        15  CHL1      C1              6.0126466782      -13.4670226832       15.2079200000  MEMB      15              0.0000000000
      1620        15  CHL1      H1A             5.0054283623      -13.1405886954       14.8713600000  MEMB      15              0.0000000000
      1621        15  CHL1      H1B             6.1038279939      -14.5659838008       15.0726800000  MEMB      15              0.0000000000
      1622        15  CHL1      C2              6.1002531238      -13.3622033110       16.7848000000  MEMB      15              0.0000000000
      1623        15  CHL1      H2A             5.3212978480      -14.0604349513       17.1590000000  MEMB      15              0.0000000000
      1624        15  CHL1      H2B             5.8688738873      -12.3173913726       17.0833800000  MEMB      15              0.0000000000
      1625        15  CHL1      C20             6.5692232891      -12.7237369873        7.4083300000  MEMB      15              0.0000000000
      1626        15  CHL1      H20             6.6308533245      -11.6144654160        7.4002300000  MEMB      15              0.0000000000
      1627        15  CHL1      C21             5.0465314690      -13.0121032300        7.5127300000  MEMB      15              0.0000000000
      1628        15  CHL1      H21A            4.5225242162      -12.6933066695        6.5863900000  MEMB      15              0.0000000000
      1629        15  CHL1      H21B            4.6312701449      -12.4607405665        8.3832900000  MEMB      15              0.0000000000
      1630        15  CHL1      H21C            4.9414026959      -14.0765055934        7.8132600000  MEMB      15              0.0000000000
      1631        15  CHL1      C22             7.1418837834      -13.4206163490        6.1689100000  MEMB      15              0.0000000000
      1632        15  CHL1      H22A            8.2283731628      -13.6434267512        6.2338200000  MEMB      15              0.0000000000
      1633        15  CHL1      H22B            6.7292370275      -14.4476411564        6.0726800000  MEMB      15              0.0000000000
      1634        15  CHL1      C23             6.8500032439      -12.7063937614        4.8503300000  MEMB      15              0.0000000000
      1635        15  CHL1      H23A            5.7972637755      -12.3653123449        4.7517100000  MEMB      15              0.0000000000
      1636        15  CHL1      H23B            7.5146142477      -11.8167669415        4.8160400000  MEMB      15              0.0000000000
      1637        15  CHL1      C24             7.2615569332      -13.5043916867        3.5987200000  MEMB      15              0.0000000000
      1638        15  CHL1      H24A            8.1560908637      -14.1137432011        3.8493200000  MEMB      15              0.0000000000
      1639        15  CHL1      H24B            6.4692529468      -14.2067990696        3.2622500000  MEMB      15              0.0000000000
      1640        15  CHL1      C25             7.6833206855      -12.7263062319        2.3850800000  MEMB      15              0.0000000000
      1641        15  CHL1      H25             8.4768056897      -12.0261391608        2.7234000000  MEMB      15              0.0000000000
      1642        15  CHL1      C26             8.2910565006      -13.6843610359        1.3468500000  MEMB      15              0.0000000000
      1643        15  CHL1      H26A            7.7988145408      -14.6769102647        1.4297600000  MEMB      15              0.0000000000
      1644        15  CHL1      H26B            8.1589317854      -13.3730880421        0.2885600000  MEMB      15              0.0000000000
      1645        15  CHL1      H26C            9.3596128089      -13.8012298789        1.6276700000  MEMB      15              0.0000000000
      1646        15  CHL1      C27             6.6292768335      -11.9526634160        1.7150600000  MEMB      15              0.0000000000
      1647        15  CHL1      H27A            5.9393837002      -12.6411731602        1.1818500000  MEMB      15              0.0000000000
      1648        15  CHL1      H27B            6.1913491721      -11.2992667618        2.4996700000  MEMB      15              0.0000000000
      1649        15  CHL1      H27C            7.0559041827      -11.2348039558        0.9822700000  MEMB      15              0.0000000000
      1650        16  CHL1      C3              4.1436848628       15.5796364556       17.3330100000  MEMB      16              0.0000000000
      1651        16  CHL1      H3              3.5593624744       14.6358497917       17.2864500000  MEMB      16              0.0000000000
      1652        16  CHL1      O3              4.5451637972       15.7083923444       18.6669900000  MEMB      16              0.0000000000
      1653        16  CHL1      H3'             3.8104727351       15.5653761981       19.2681400000  MEMB      16              0.0000000000
      1654        16  CHL1      C4              5.3536357696       15.5452500353       16.4533700000  MEMB      16              0.0000000000
      1655        16  CHL1      H4A             6.1172878795       16.3345987532       16.6210000000  MEMB      16              0.0000000000
      1656        16  CHL1      H4B             5.8997124027       14.6269163966       16.7579900000  MEMB      16              0.0000000000
      1657        16  CHL1      C5              5.0128982288       15.4964477649       14.9625100000  MEMB      16              0.0000000000
      1658        16  CHL1      C6              5.4017804073       14.4674868184       14.1837400000  MEMB      16              0.0000000000
      1659        16  CHL1      H6              5.9397922946       13.5948645905       14.5825900000  MEMB      16              0.0000000000
      1660        16  CHL1      C7              5.1092100995       14.3959765569       12.7237100000  MEMB      16              0.0000000000
      1661        16  CHL1      H7A             5.9616665218       13.9831403180       12.1430100000  MEMB      16              0.0000000000
      1662        16  CHL1      H7B             4.2714455966       13.6710854251       12.6400200000  MEMB      16              0.0000000000
      1663        16  CHL1      C8              4.6822194368       15.7214866391       12.0708000000  MEMB      16              0.0000000000
      1664        16  CHL1      H8              5.4744100595       16.4994189176       12.1105700000  MEMB      16              0.0000000000
      1665        16  CHL1      C14             4.1028609623       15.5262085448       10.6305400000  MEMB      16              0.0000000000
      1666        16  CHL1      H14             3.1735865022       14.9174799897       10.6160600000  MEMB      16              0.0000000000
      1667        16  CHL1      C15             4.9934666650       14.8281732554        9.6157900000  MEMB      16              0.0000000000
      1668        16  CHL1      H15A            6.0107006590       15.2643562604        9.7122300000  MEMB      16              0.0000000000
      1669        16  CHL1      H15B            5.1916012946       13.7376122220        9.6915600000  MEMB      16              0.0000000000
      1670        16  CHL1      C16             4.3343478127       15.2873522719        8.2575100000  MEMB      16              0.0000000000
      1671        16  CHL1      H16A            5.0808780093       15.5582772818        7.4805900000  MEMB      16              0.0000000000
      1672        16  CHL1      H16B            3.6798207527       14.4431827079        7.9520600000  MEMB      16              0.0000000000
      1673        16  CHL1      C17             3.2305567765       16.3937299766        8.6071700000  MEMB      16              0.0000000000
      1674        16  CHL1      H17             2.2846900789       15.8820054944        8.8860600000  MEMB      16              0.0000000000
      1675        16  CHL1      C13             3.6676323485       16.8492809517        9.9972600000  MEMB      16              0.0000000000
      1676        16  CHL1      C18             4.7784458970       17.9018294948        9.6947700000  MEMB      16              0.0000000000
      1677        16  CHL1      H18A            5.6221604910       17.4425845150        9.1366000000  MEMB      16              0.0000000000
      1678        16  CHL1      H18B            4.4933802999       18.8271788925        9.1499900000  MEMB      16              0.0000000000
      1679        16  CHL1      H18C            5.2521307690       18.4193343201       10.5562400000  MEMB      16              0.0000000000
      1680        16  CHL1      C12             2.5283390168       17.4461278022       10.8665000000  MEMB      16              0.0000000000
      1681        16  CHL1      H12A            2.1767444387       18.4331372939       10.4970200000  MEMB      16              0.0000000000
      1682        16  CHL1      H12B            1.6807615983       16.7386199608       10.9905000000  MEMB      16              0.0000000000
      1683        16  CHL1      C11             3.0089023714       17.6313967169       12.2795800000  MEMB      16              0.0000000000
      1684        16  CHL1      H11A            3.9035737125       18.2894767578       12.2511500000  MEMB      16              0.0000000000
      1685        16  CHL1      H11B            2.3018992270       18.1633523049       12.9515200000  MEMB      16              0.0000000000
      1686        16  CHL1      C9              3.6027016573       16.3917256333       12.9588600000  MEMB      16              0.0000000000
      1687        16  CHL1      H9              2.7207226564       15.7235574657       13.0587600000  MEMB      16              0.0000000000
      1688        16  CHL1      C10             4.0807881306       16.5731310834       14.4701100000  MEMB      16              0.0000000000
      1689        16  CHL1      C19             4.8154194503       17.9064471625       14.5987100000  MEMB      16              0.0000000000
      1690        16  CHL1      H19A            5.1848602140       17.9981340817       15.6424600000  MEMB      16              0.0000000000
      1691        16  CHL1      H19B            5.6348813431       17.9793403712       13.8520600000  MEMB      16              0.0000000000
      1692        16  CHL1      H19C            4.0635969501       18.7156347255       14.4791000000  MEMB      16              0.0000000000
      1693        16  CHL1      C1              2.8856830589       16.5664350588       15.4802600000  MEMB      16              0.0000000000
      1694        16  CHL1      H1A             2.2141235857       17.4274045394       15.2752100000  MEMB      16              0.0000000000
      1695        16  CHL1      H1B             2.3586421833       15.5994146608       15.3338900000  MEMB      16              0.0000000000
      1696        16  CHL1      C2              3.2423208895       16.6968810092       16.9441800000  MEMB      16              0.0000000000
      1697        16  CHL1      H2A             2.3145851170       16.6871661588       17.5553500000  MEMB      16              0.0000000000
      1698        16  CHL1      H2B             3.7081580199       17.6792698447       17.1727300000  MEMB      16              0.0000000000
      1699        16  CHL1      C20             2.8752763555       17.3287239268        7.3911300000  MEMB      16              0.0000000000
      1700        16  CHL1      H20             3.8792866274       17.6795612272        7.0698700000  MEMB      16              0.0000000000
      1701        16  CHL1      C21             1.9708543281       18.5462776525        7.7404500000  MEMB      16              0.0000000000
      1702        16  CHL1      H21A            2.4012430779       19.2903584771        8.4443100000  MEMB      16              0.0000000000
      1703        16  CHL1      H21B            0.9608842789       18.2811303722        8.1199100000  MEMB      16              0.0000000000
      1704        16  CHL1      H21C            1.7676913292       19.1335403208        6.8194800000  MEMB      16              0.0000000000
      1705        16  CHL1      C22             2.3625186159       16.3255092195        6.3211300000  MEMB      16              0.0000000000
      1706        16  CHL1      H22A            3.0426583132       15.4848621466        6.0660900000  MEMB      16              0.0000000000
      1707        16  CHL1      H22B            1.3893913369       15.8733412877        6.6090200000  MEMB      16              0.0000000000
      1708        16  CHL1      C23             2.0177434901       16.8651076578        4.9008800000  MEMB      16              0.0000000000
      1709        16  CHL1      H23A            1.4904426896       17.8207610355        5.1082500000  MEMB      16              0.0000000000
      1710        16  CHL1      H23B            2.9864963035       17.2395290337        4.5063500000  MEMB      16              0.0000000000
      1711        16  CHL1      C24             1.1643738927       16.0795207113        3.9505000000  MEMB      16              0.0000000000
      1712        16  CHL1      H24A            1.7685940678       15.2282145133        3.5703700000  MEMB      16              0.0000000000
      1713        16  CHL1      H24B            0.2991549953       15.5380828649        4.3893300000  MEMB      16              0.0000000000
      1714        16  CHL1      C25             0.6896928308       16.8168253962        2.6490000000  MEMB      16              0.0000000000
      1715        16  CHL1      H25            -0.0088757934       17.6424516418        2.9032800000  MEMB      16              0.0000000000
      1716        16  CHL1      C26             1.9682565883       17.2525598106        1.8478200000  MEMB      16              0.0000000000
      1717        16  CHL1      H26A            2.5297277322       17.9482205891        2.5074500000  MEMB      16              0.0000000000
      1718        16  CHL1      H26B            2.6345544612       16.3803340757        1.6758200000  MEMB      16              0.0000000000
      1719        16  CHL1      H26C            1.6299341363       17.7331770935        0.9050300000  MEMB      16              0.0000000000
      1720        16  CHL1      C27             0.0527074408       15.8772631804        1.7171100000  MEMB      16              0.0000000000
      1721        16  CHL1      H27A           -0.8461277471       15.3906892667        2.1526000000  MEMB      16              0.0000000000
      1722        16  CHL1      H27B           -0.4222063525       16.2836976547        0.7986300000  MEMB      16              0.0000000000
      1723        16  CHL1      H27C            0.8032243451       15.0806742332        1.5261100000  MEMB      16              0.0000000000
      1724        17  SAPS      N             -14.1870357065       -0.7580212517       20.8237111867  MEMB      17              0.0000000000
      1725        17  SAPS      HN1           -13.8481256666       -1.6951344394       20.5261229321  MEMB      17              0.0000000000
      1726        17  SAPS      HN2           -13.7305036452        0.0488881856       20.3524622882  MEMB      17              0.0000000000
      1727        17  SAPS      HN3           -13.9424987765       -0.7789286919       21.8343371212  MEMB      17              0.0000000000
      1728        17  SAPS      C12           -15.6346372472       -0.7095996919       20.8315356632  MEMB      17              0.0000000000
      1729        17  SAPS      H12A          -15.9309685749       -1.2263895239       21.7323774794  MEMB      17              0.0000000000
      1730        17  SAPS      C13           -16.2428013900        0.7286953330       21.0163936688  MEMB      17              0.0000000000
      1731        17  SAPS      O13A          -15.4919390928        1.6618358635       21.3399087921  MEMB      17              0.0000000000
      1732        17  SAPS      O13B          -17.4995272504        0.7314612738       21.1281164139  MEMB      17              0.0000000000
      1733        17  SAPS      C11           -16.1495536856       -1.3918547162       19.4964053981  MEMB      17              0.0000000000
      1734        17  SAPS      H11A          -15.6843110205       -2.4000511881       19.4588560145  MEMB      17              0.0000000000
      1735        17  SAPS      H11B          -15.7034254488       -0.9150746500       18.5975332072  MEMB      17              0.0000000000
      1736        17  SAPS      P             -18.3346435855       -2.7710509695       19.0809940456  MEMB      17              0.0000000000
      1737        17  SAPS      O13           -17.3835416596       -3.8555052347       19.3126889688  MEMB      17              0.0000000000
      1738        17  SAPS      O14           -19.5188341344       -2.7033686203       19.9535671419  MEMB      17              0.0000000000
      1739        17  SAPS      O12           -17.5455467490       -1.4897063740       19.4751943473  MEMB      17              0.0000000000
      1740        17  SAPS      O11           -18.5946555982       -2.5724562431       17.5414843281  MEMB      17              0.0000000000
      1741        17  SAPS      C1            -17.6231498255       -2.8388948651       16.5062070095  MEMB      17              0.0000000000
      1742        17  SAPS      HA            -16.6057172995       -2.8729957325       16.9511667901  MEMB      17              0.0000000000
      1743        17  SAPS      HB            -17.7276207574       -3.8708999221       16.1082467488  MEMB      17              0.0000000000
      1744        17  SAPS      C2            -17.6069323259       -1.7928931138       15.3913676303  MEMB      17              0.0000000000
      1745        17  SAPS      HS            -17.3824938774       -0.8036525049       15.8445247593  MEMB      17              0.0000000000
      1746        17  SAPS      O21           -18.8906463955       -1.7738655014       14.6900979767  MEMB      17              0.0000000000
      1747        17  SAPS      C21           -19.7924332743       -0.9234851258       15.3015372432  MEMB      17              0.0000000000
      1748        17  SAPS      O22           -19.5981536120       -0.2837909732       16.3042439402  MEMB      17              0.0000000000
      1749        17  SAPS      C22           -21.0201985222       -0.7474642053       14.4855275561  MEMB      17              0.0000000000
      1750        17  SAPS      H2R           -21.5575185357       -1.7194191362       14.5157249659  MEMB      17              0.0000000000
      1751        17  SAPS      H2S           -21.7006160667       -0.0122114573       14.9658986239  MEMB      17              0.0000000000
      1752        17  SAPS      C3            -16.4874583254       -1.9138034435       14.2982764614  MEMB      17              0.0000000000
      1753        17  SAPS      HX            -15.4936890540       -1.6233887464       14.7012689483  MEMB      17              0.0000000000
      1754        17  SAPS      HY            -16.8298009585       -1.1797169630       13.5378557238  MEMB      17              0.0000000000
      1755        17  SAPS      O31           -16.7063380032       -3.2007417364       13.7787971458  MEMB      17              0.0000000000
      1756        17  SAPS      C31           -15.9541611136       -3.5066696839       12.6247841618  MEMB      17              0.0000000000
      1757        17  SAPS      O32           -15.1749634428       -2.7274518098       12.2091547195  MEMB      17              0.0000000000
      1758        17  SAPS      C32           -16.1598949681       -5.0323443401       12.1745701046  MEMB      17              0.0000000000
      1759        17  SAPS      H2X           -17.2358586721       -5.2167987184       12.3809674329  MEMB      17              0.0000000000
      1760        17  SAPS      H2Y           -15.5995504042       -5.7394669355       12.8228850751  MEMB      17              0.0000000000
      1761        17  SAPS      C23           -20.7202974250       -0.3415279362       13.0282414415  MEMB      17              0.0000000000
      1762        17  SAPS      H3R           -21.6898291582       -0.5894556032       12.5456841392  MEMB      17              0.0000000000
      1763        17  SAPS      H3S           -19.9404057900       -0.9737144962       12.5523947240  MEMB      17              0.0000000000
      1764        17  SAPS      C24           -20.2821747248        1.1357211596       12.8084705556  MEMB      17              0.0000000000
      1765        17  SAPS      H4R           -19.4617893722        1.3055554110       13.5381589254  MEMB      17              0.0000000000
      1766        17  SAPS      H4S           -21.1395054615        1.6300176676       13.3134220409  MEMB      17              0.0000000000
      1767        17  SAPS      C25           -19.9687386032        1.7710743974       11.4363789490  MEMB      17              0.0000000000
      1768        17  SAPS      H5R           -20.8276839450        1.9905060469       10.7851788447  MEMB      17              0.0000000000
      1769        17  SAPS      C26           -18.6960850174        2.1379836005       10.9840029223  MEMB      17              0.0000000000
      1770        17  SAPS      H6R           -18.5778237356        2.5758809983        9.9818747124  MEMB      17              0.0000000000
      1771        17  SAPS      C27           -17.3242021016        1.9911413551       11.6234966090  MEMB      17              0.0000000000
      1772        17  SAPS      H7R           -16.9519452838        0.9881955328       11.3237546742  MEMB      17              0.0000000000
      1773        17  SAPS      H7S           -17.5457602935        1.9443116578       12.7111732906  MEMB      17              0.0000000000
      1774        17  SAPS      C28           -16.3438967517        3.1426945940       11.1927895502  MEMB      17              0.0000000000
      1775        17  SAPS      H8R           -16.6806516476        4.1898714727       11.1886675376  MEMB      17              0.0000000000
      1776        17  SAPS      C29           -15.1320512241        2.9393059508       10.7830512739  MEMB      17              0.0000000000
      1777        17  SAPS      H9R           -14.4892093597        3.8019692812       10.5537773702  MEMB      17              0.0000000000
      1778        17  SAPS      C210          -14.3313212836        1.7016999256       10.5302656974  MEMB      17              0.0000000000
      1779        17  SAPS      H10R          -14.9779883532        0.8635093440       10.8672807136  MEMB      17              0.0000000000
      1780        17  SAPS      H10S          -13.4297251652        1.6556302340       11.1778174668  MEMB      17              0.0000000000
      1781        17  SAPS      C211          -13.8806903068        1.5333019770        9.0537170088  MEMB      17              0.0000000000
      1782        17  SAPS      H11R          -13.0738228179        2.2462946909        8.8287579917  MEMB      17              0.0000000000
      1783        17  SAPS      C212          -14.3029408371        0.7336315710        8.0536135640  MEMB      17              0.0000000000
      1784        17  SAPS      H12R          -13.9189381807        0.7704971017        7.0234767234  MEMB      17              0.0000000000
      1785        17  SAPS      C213          -15.4700376040       -0.2436358140        8.2668928154  MEMB      17              0.0000000000
      1786        17  SAPS      H13R          -16.1046582956        0.0307523355        9.1365408057  MEMB      17              0.0000000000
      1787        17  SAPS      H13S          -15.0097357113       -1.1881453640        8.6279258956  MEMB      17              0.0000000000
      1788        17  SAPS      C214          -16.3223944196       -0.4781841510        7.0545571105  MEMB      17              0.0000000000
      1789        17  SAPS      H14R          -17.0930445176        0.3050688720        7.0034379392  MEMB      17              0.0000000000
      1790        17  SAPS      C215          -16.1780316064       -1.2680475564        6.0133174273  MEMB      17              0.0000000000
      1791        17  SAPS      H15R          -16.8012274444       -1.2356834777        5.1074593397  MEMB      17              0.0000000000
      1792        17  SAPS      C216          -14.9730834584       -2.1912573320        5.8715656175  MEMB      17              0.0000000000
      1793        17  SAPS      H16R          -14.2226153178       -2.0028064096        6.6688135155  MEMB      17              0.0000000000
      1794        17  SAPS      H16S          -14.3071294814       -1.8594133258        5.0465170894  MEMB      17              0.0000000000
      1795        17  SAPS      C217          -15.3993185964       -3.6104921950        5.7955314316  MEMB      17              0.0000000000
      1796        17  SAPS      H17R          -15.8438683362       -3.8374406337        6.7880997137  MEMB      17              0.0000000000
      1797        17  SAPS      H17S          -14.4032098715       -4.1020236982        5.7735068805  MEMB      17              0.0000000000
      1798        17  SAPS      C218          -16.3596045260       -4.0424247659        4.6790295306  MEMB      17              0.0000000000
      1799        17  SAPS      H18R          -17.2456145218       -3.3802774795        4.7832811455  MEMB      17              0.0000000000
      1800        17  SAPS      H18S          -16.6701584558       -5.1022962526        4.7996478194  MEMB      17              0.0000000000
      1801        17  SAPS      C219          -15.7554897853       -3.8389995795        3.2979270271  MEMB      17              0.0000000000
      1802        17  SAPS      H19R          -14.9388637592       -4.5906052123        3.2476103199  MEMB      17              0.0000000000
      1803        17  SAPS      H19S          -15.3578117058       -2.8078019995        3.1847716175  MEMB      17              0.0000000000
      1804        17  SAPS      C220          -16.7388304844       -4.0614413955        2.1897389326  MEMB      17              0.0000000000
      1805        17  SAPS      H20R          -17.4833018387       -4.8713802371        2.3449240340  MEMB      17              0.0000000000
      1806        17  SAPS      H20S          -16.1900618109       -4.4587100537        1.3091975032  MEMB      17              0.0000000000
      1807        17  SAPS      H20T          -17.2698775202       -3.1096305395        1.9744108502  MEMB      17              0.0000000000
      1808        17  SAPS      C33           -15.8504655261       -5.1984054457       10.6869524444  MEMB      17              0.0000000000
      1809        17  SAPS      H3X           -15.6435990943       -6.2772004357       10.5204327070  MEMB      17              0.0000000000
      1810        17  SAPS      H3Y           -14.8644013218       -4.6942536797       10.5984694085  MEMB      17              0.0000000000
      1811        17  SAPS      C34           -16.6506545420       -4.5637192750        9.5069794989  MEMB      17              0.0000000000
      1812        17  SAPS      H4X           -16.6075281577       -5.2167541734        8.6092010322  MEMB      17              0.0000000000
      1813        17  SAPS      H4Y           -16.1368865879       -3.6015387740        9.2958588637  MEMB      17              0.0000000000
      1814        17  SAPS      C35           -18.1432704123       -4.2385579926        9.7900039324  MEMB      17              0.0000000000
      1815        17  SAPS      H5X           -18.1555023162       -3.6312112045       10.7202193592  MEMB      17              0.0000000000
      1816        17  SAPS      H5Y           -18.7714417228       -5.1237747894       10.0268850938  MEMB      17              0.0000000000
      1817        17  SAPS      C36           -18.8407360150       -3.5980156918        8.5605393022  MEMB      17              0.0000000000
      1818        17  SAPS      H6X           -19.7690847830       -4.1727589779        8.3552113830  MEMB      17              0.0000000000
      1819        17  SAPS      H6Y           -18.1111698192       -3.7324615780        7.7335094068  MEMB      17              0.0000000000
      1820        17  SAPS      C37           -19.2670415096       -2.1354607763        8.9148650174  MEMB      17              0.0000000000
      1821        17  SAPS      H7X           -18.2841851823       -1.6966545222        9.1901159967  MEMB      17              0.0000000000
      1822        17  SAPS      H7Y           -19.9612910171       -2.1400911361        9.7822273885  MEMB      17              0.0000000000
      1823        17  SAPS      C38           -20.0813163669       -1.3956191032        7.7750022028  MEMB      17              0.0000000000
      1824        17  SAPS      H8X           -20.9347252242       -1.9994562196        7.3989767542  MEMB      17              0.0000000000
      1825        17  SAPS      H8Y           -19.2899641765       -1.3100469341        6.9999158462  MEMB      17              0.0000000000
      1826        17  SAPS      C39           -20.5407568306        0.0618022638        8.0145704866  MEMB      17              0.0000000000
      1827        17  SAPS      H9X           -19.8002501500        0.6176860495        8.6285448379  MEMB      17              0.0000000000
      1828        17  SAPS      H9Y           -21.5002320921        0.0555709884        8.5746497323  MEMB      17              0.0000000000
      1829        17  SAPS      C310          -20.7232003609        1.0059981797        6.6748853598  MEMB      17              0.0000000000
      1830        17  SAPS      H10X          -21.0574912519        2.0242369528        6.9677337743  MEMB      17              0.0000000000
      1831        17  SAPS      H10Y          -21.5108891823        0.5704426411        6.0236107026  MEMB      17              0.0000000000
      1832        17  SAPS      C311          -19.3994915089        1.2614750967        5.8941902242  MEMB      17              0.0000000000
      1833        17  SAPS      H11X          -18.9379294134        0.2979229342        5.5894787126  MEMB      17              0.0000000000
      1834        17  SAPS      H11Y          -18.6835299694        1.7578013713        6.5836680772  MEMB      17              0.0000000000
      1835        17  SAPS      C312          -19.5194027886        2.2022939299        4.6946243385  MEMB      17              0.0000000000
      1836        17  SAPS      H12X          -19.6928513054        3.2199592497        5.1052261709  MEMB      17              0.0000000000
      1837        17  SAPS      H12Y          -20.4276575505        1.8282882279        4.1754769678  MEMB      17              0.0000000000
      1838        17  SAPS      C313          -18.3922665057        2.0440962722        3.6843335615  MEMB      17              0.0000000000
      1839        17  SAPS      H13X          -18.3592155314        1.0202137864        3.2543412219  MEMB      17              0.0000000000
      1840        17  SAPS      H13Y          -17.4491725497        2.1742216271        4.2570135016  MEMB      17              0.0000000000
      1841        17  SAPS      C314          -18.6435577129        2.9332901686        2.4475409874  MEMB      17              0.0000000000
      1842        17  SAPS      H14X          -19.1257136382        3.8660390213        2.8106211340  MEMB      17              0.0000000000
      1843        17  SAPS      H14Y          -19.3254015544        2.4175174554        1.7380426250  MEMB      17              0.0000000000
      1844        17  SAPS      C315          -17.2330787672        3.2576029223        1.8952836360  MEMB      17              0.0000000000
      1845        17  SAPS      H15X          -16.5909903308        3.8095754966        2.6145683065  MEMB      17              0.0000000000
      1846        17  SAPS      H15Y          -17.3323093236        3.9699000503        1.0484620565  MEMB      17              0.0000000000
      1847        17  SAPS      C316          -16.5328454908        1.9383879609        1.4717733303  MEMB      17              0.0000000000
      1848        17  SAPS      H16X          -16.1562568413        1.3188341928        2.3135912977  MEMB      17              0.0000000000
      1849        17  SAPS      H16Y          -15.5802468297        2.3574529229        1.0828512171  MEMB      17              0.0000000000
      1850        17  SAPS      C317          -17.2550091915        1.0198100527        0.4865354737  MEMB      17              0.0000000000
      1851        17  SAPS      H17X          -18.1109563716        0.4631385052        0.9244776260  MEMB      17              0.0000000000
      1852        17  SAPS      H17Y          -16.4612012176        0.2872877587        0.2265350922  MEMB      17              0.0000000000
      1853        17  SAPS      C318          -17.8477477230        1.6720833873       -0.6984125249  MEMB      17              0.0000000000
      1854        17  SAPS      H18X          -18.1966601244        0.9669164498       -1.4828363761  MEMB      17              0.0000000000
      1855        17  SAPS      H18Y          -17.0805592399        2.2538262633       -1.2527755026  MEMB      17              0.0000000000
      1856        17  SAPS      H18Z          -18.6472649927        2.4138218937       -0.4864764774  MEMB      17              0.0000000000
      1857        18  OSM       N              -5.7468068194      -16.7552445356       21.5097257788  MEMB      18              0.0000000000
      1858        18  OSM       C15            -5.9375850299      -16.9336286903       23.0106034068  MEMB      18              0.0000000000
      1859        18  OSM       H15A           -6.7316782348      -16.2166314886       23.1580182084  MEMB      18              0.0000000000
      1860        18  OSM       H15B           -5.0093893743      -16.6569547624       23.4884154240  MEMB      18              0.0000000000
      1861        18  OSM       H15C           -6.2241859728      -17.9423164173       23.2690778804  MEMB      18              0.0000000000
      1862        18  OSM       C14            -4.8037395391      -17.7494655635       21.0519991532  MEMB      18              0.0000000000
      1863        18  OSM       H14A           -4.6226611637      -17.6036354464       19.9973218154  MEMB      18              0.0000000000
      1864        18  OSM       H14B           -5.1227374945      -18.7579928701       21.2699744966  MEMB      18              0.0000000000
      1865        18  OSM       H14C           -3.8233418519      -17.6121867162       21.4837112845  MEMB      18              0.0000000000
      1866        18  OSM       C13            -7.0292329880      -17.0102892514       20.7768982755  MEMB      18              0.0000000000
      1867        18  OSM       H13A           -7.3664593300      -18.0148198597       20.9856963370  MEMB      18              0.0000000000
      1868        18  OSM       H13B           -7.0999587118      -16.7149413010       19.7404777812  MEMB      18              0.0000000000
      1869        18  OSM       H13C           -7.7006766153      -16.4042630564       21.3670641064  MEMB      18              0.0000000000
      1870        18  OSM       C12            -5.2449980694      -15.3951487864       21.1291538305  MEMB      18              0.0000000000
      1871        18  OSM       H12A           -5.0223866263      -15.4624405197       20.0744899219  MEMB      18              0.0000000000
      1872        18  OSM       H12B           -4.3906617891      -15.1654594529       21.7486312929  MEMB      18              0.0000000000
      1873        18  OSM       C11            -6.2065203322      -14.1859801326       21.4042480228  MEMB      18              0.0000000000
      1874        18  OSM       H11A           -5.6732641071      -13.2132165420       21.3435031349  MEMB      18              0.0000000000
      1875        18  OSM       H11B           -6.7302122205      -14.4236358668       22.3548202228  MEMB      18              0.0000000000
      1876        18  OSM       P              -8.6053974593      -13.5569518306       20.4597410252  MEMB      18              0.0000000000
      1877        18  OSM       O13            -9.4755492555      -14.6728897107       20.0826855752  MEMB      18              0.0000000000
      1878        18  OSM       O14            -8.5904831450      -12.9923765839       21.8281140425  MEMB      18              0.0000000000
      1879        18  OSM       O11            -8.7030498223      -12.3262664214       19.4642905038  MEMB      18              0.0000000000
      1880        18  OSM       O12            -7.1814383550      -14.1757633323       20.2825403853  MEMB      18              0.0000000000
      1881        18  OSM       C1S            -7.5630340972      -11.9142688411       18.5821452788  MEMB      18              0.0000000000
      1882        18  OSM       H1S            -6.5877599736      -12.2505216159       18.9945715915  MEMB      18              0.0000000000
      1883        18  OSM       H1T            -7.5908702985      -10.8036283950       18.5870491467  MEMB      18              0.0000000000
      1884        18  OSM       NF             -6.5354392245      -12.4243534938       16.4060452394  MEMB      18              0.0000000000
      1885        18  OSM       HNF            -6.6601416633      -11.9186575331       15.5559102445  MEMB      18              0.0000000000
      1886        18  OSM       C2S            -7.7640013391      -12.4598842531       17.1572389923  MEMB      18              0.0000000000
      1887        18  OSM       H2S            -8.0124456206      -13.5408139467       17.2219498411  MEMB      18              0.0000000000
      1888        18  OSM       C3S            -8.8730908755      -11.6704284250       16.2944328499  MEMB      18              0.0000000000
      1889        18  OSM       H3S            -8.7322059372      -10.5684451820       16.3047040110  MEMB      18              0.0000000000
      1890        18  OSM       O3            -10.1619059063      -11.9447252529       16.7965265719  MEMB      18              0.0000000000
      1891        18  OSM       HO3           -10.1151296327      -12.3253862927       17.6765887690  MEMB      18              0.0000000000
      1892        18  OSM       C4S            -8.7685573208      -12.1376226380       14.8569870667  MEMB      18              0.0000000000
      1893        18  OSM       H4S            -8.6256253372      -13.2207888849       14.7292321199  MEMB      18              0.0000000000
      1894        18  OSM       C5S            -8.6894763780      -11.2537813531       13.8278126788  MEMB      18              0.0000000000
      1895        18  OSM       H5S            -8.8369919375      -10.1755956239       13.9882951525  MEMB      18              0.0000000000
      1896        18  OSM       C6S            -8.5718821940      -11.5540298588       12.3378135641  MEMB      18              0.0000000000
      1897        18  OSM       H6S            -7.5480921415      -11.9821770809       12.2842868428  MEMB      18              0.0000000000
      1898        18  OSM       H6T            -8.5149067727      -10.5684844479       11.8281321755  MEMB      18              0.0000000000
      1899        18  OSM       C7S            -9.6720194958      -12.5424217384       11.7726986154  MEMB      18              0.0000000000
      1900        18  OSM       H7S           -10.6496346119      -12.1173507909       12.0855946957  MEMB      18              0.0000000000
      1901        18  OSM       H7T            -9.6423473827      -13.5763813431       12.1781215231  MEMB      18              0.0000000000
      1902        18  OSM       C8S            -9.7105287918      -12.7152583653       10.2849529342  MEMB      18              0.0000000000
      1903        18  OSM       H8S            -9.5789868147      -11.7418574940        9.7658108086  MEMB      18              0.0000000000
      1904        18  OSM       H8T           -10.6622835712      -13.1715678020        9.9381601324  MEMB      18              0.0000000000
      1905        18  OSM       C9S            -8.6236378334      -13.6447487164        9.8353197708  MEMB      18              0.0000000000
      1906        18  OSM       H9S            -8.8958277668      -14.6764532008       10.1448663005  MEMB      18              0.0000000000
      1907        18  OSM       H9T            -7.6170757584      -13.5629376565       10.2984183240  MEMB      18              0.0000000000
      1908        18  OSM       C10S           -8.3887626115      -13.6349708829        8.2801672371  MEMB      18              0.0000000000
      1909        18  OSM       H10S           -7.8510474791      -14.5879237536        8.0876466642  MEMB      18              0.0000000000
      1910        18  OSM       H10T           -7.7904564831      -12.7674234822        7.9284395040  MEMB      18              0.0000000000
      1911        18  OSM       C11S           -9.6988132956      -13.8168194602        7.4974195589  MEMB      18              0.0000000000
      1912        18  OSM       H11S          -10.4045620663      -12.9597408019        7.4567319117  MEMB      18              0.0000000000
      1913        18  OSM       H11T          -10.1894021994      -14.6635263447        8.0234722878  MEMB      18              0.0000000000
      1914        18  OSM       C12S           -9.6196738835      -14.3091406175        6.0293418399  MEMB      18              0.0000000000
      1915        18  OSM       H12S          -10.6735555794      -14.3268228122        5.6781411700  MEMB      18              0.0000000000
      1916        18  OSM       H12T           -9.3103775437      -15.3761599518        6.0406071199  MEMB      18              0.0000000000
      1917        18  OSM       C13S           -8.7062307534      -13.6116823825        5.0161459897  MEMB      18              0.0000000000
      1918        18  OSM       H13S           -7.7250271395      -13.4843787946        5.5214719335  MEMB      18              0.0000000000
      1919        18  OSM       H13T           -9.1416902683      -12.6059234897        4.8340875015  MEMB      18              0.0000000000
      1920        18  OSM       C14S           -8.4872314854      -14.2131913063        3.5660266654  MEMB      18              0.0000000000
      1921        18  OSM       H14S           -8.4414156876      -15.3064794109        3.7582338355  MEMB      18              0.0000000000
      1922        18  OSM       H14T           -7.5343946783      -13.8000748862        3.1713640216  MEMB      18              0.0000000000
      1923        18  OSM       C15S           -9.5697366495      -13.8977726290        2.5390949135  MEMB      18              0.0000000000
      1924        18  OSM       H15S          -10.4910517600      -14.4440686774        2.8341549568  MEMB      18              0.0000000000
      1925        18  OSM       H15T           -9.2961348225      -14.4323946243        1.6044068466  MEMB      18              0.0000000000
      1926        18  OSM       C16S           -9.9311550269      -12.3962950407        2.3298284961  MEMB      18              0.0000000000
      1927        18  OSM       H16S          -10.4610901336      -12.1269212365        3.2684062817  MEMB      18              0.0000000000
      1928        18  OSM       H16T          -10.5497727579      -12.1996284689        1.4281892454  MEMB      18              0.0000000000
      1929        18  OSM       C17S           -8.6757295521      -11.5215326878        2.2701796328  MEMB      18              0.0000000000
      1930        18  OSM       H17S           -7.9976495734      -11.8743792257        1.4639365232  MEMB      18              0.0000000000
      1931        18  OSM       H17T           -8.2277530924      -11.5024973638        3.2866825416  MEMB      18              0.0000000000
      1932        18  OSM       C18S           -8.9632557474      -10.0294582341        1.9486753701  MEMB      18              0.0000000000
      1933        18  OSM       H18S           -8.0151746379       -9.4508192357        1.9739747291  MEMB      18              0.0000000000
      1934        18  OSM       H18T           -9.5960001935       -9.6169647681        2.7634181114  MEMB      18              0.0000000000
      1935        18  OSM       H18U           -9.3941898454      -10.1070984710        0.9276026492  MEMB      18              0.0000000000
      1936        18  OSM       C1F            -5.3973141354      -13.1683439532       16.7394256839  MEMB      18              0.0000000000
      1937        18  OSM       OF             -5.3866462754      -13.9592265656       17.6823796084  MEMB      18              0.0000000000
      1938        18  OSM       C2F            -4.1934896226      -12.8348454498       15.9303009285  MEMB      18              0.0000000000
      1939        18  OSM       H2F            -3.7979168704      -11.8630946040       16.2957365998  MEMB      18              0.0000000000
      1940        18  OSM       H2G            -4.5268161153      -12.5919176549       14.8987001092  MEMB      18              0.0000000000
      1941        18  OSM       C3F            -3.1834420605      -13.9977861087       15.8370576824  MEMB      18              0.0000000000
      1942        18  OSM       H3F            -2.7963793948      -14.3510934927       16.8166889429  MEMB      18              0.0000000000
      1943        18  OSM       H3G            -2.3049187840      -13.7235549156       15.2147115951  MEMB      18              0.0000000000
      1944        18  OSM       C4F            -3.6902940628      -15.2158695572       14.9824194137  MEMB      18              0.0000000000
      1945        18  OSM       H4F            -4.7863219223      -15.2926745221       15.1471765934  MEMB      18              0.0000000000
      1946        18  OSM       H4G            -3.1432986011      -16.1356330332       15.2810029304  MEMB      18              0.0000000000
      1947        18  OSM       C5F            -3.6391796347      -15.0324978383       13.4548363085  MEMB      18              0.0000000000
      1948        18  OSM       H5F            -2.6154064734      -15.0873905526       13.0268223802  MEMB      18              0.0000000000
      1949        18  OSM       H5G            -3.9471930839      -14.0311251627       13.0851041286  MEMB      18              0.0000000000
      1950        18  OSM       C6F            -4.5294354594      -16.0738010739       12.6635868359  MEMB      18              0.0000000000
      1951        18  OSM       H6F            -5.4506805462      -16.3742321936       13.2070663150  MEMB      18              0.0000000000
      1952        18  OSM       H6G            -3.9190881007      -16.9953108631       12.5512604300  MEMB      18              0.0000000000
      1953        18  OSM       C7F            -4.8761199068      -15.5977293755       11.1738958880  MEMB      18              0.0000000000
      1954        18  OSM       H7F            -5.0424381445      -14.5005779086       11.1198830951  MEMB      18              0.0000000000
      1955        18  OSM       H7G            -5.8510654813      -16.0870552557       10.9632720705  MEMB      18              0.0000000000
      1956        18  OSM       C8F            -3.8851165115      -16.0442581205       10.0955449543  MEMB      18              0.0000000000
      1957        18  OSM       H8F            -2.8731368480      -15.6921093216       10.3891592019  MEMB      18              0.0000000000
      1958        18  OSM       H8G            -3.9465082965      -15.3723034502        9.2129186850  MEMB      18              0.0000000000
      1959        18  OSM       C9F            -4.1113988029      -17.3605156827        9.3642426390  MEMB      18              0.0000000000
      1960        18  OSM       H9F            -3.9199614290      -18.2543157218        9.9761844148  MEMB      18              0.0000000000
      1961        18  OSM       C10F           -4.6713001678      -17.6790876227        8.1929323219  MEMB      18              0.0000000000
      1962        18  OSM       H10F           -4.8630135093      -18.7451585911        8.0012587903  MEMB      18              0.0000000000
      1963        18  OSM       C11F           -5.2358707745      -16.6985126418        7.1162411309  MEMB      18              0.0000000000
      1964        18  OSM       H11F           -5.0611356910      -15.6437122124        7.4182091105  MEMB      18              0.0000000000
      1965        18  OSM       H11G           -6.3060505198      -16.9749643052        7.0039447236  MEMB      18              0.0000000000
      1966        18  OSM       C12F           -4.6182753087      -17.0012075181        5.7328121854  MEMB      18              0.0000000000
      1967        18  OSM       H12F           -5.3447474719      -16.5746159370        5.0085343404  MEMB      18              0.0000000000
      1968        18  OSM       H12G           -4.5153712476      -18.1021266641        5.6246020749  MEMB      18              0.0000000000
      1969        18  OSM       C13F           -3.3039811495      -16.3825085381        5.3759561394  MEMB      18              0.0000000000
      1970        18  OSM       H13F           -2.5165290055      -16.9110582441        5.9546411571  MEMB      18              0.0000000000
      1971        18  OSM       H13G           -3.2741642684      -15.3053820413        5.6465675378  MEMB      18              0.0000000000
      1972        18  OSM       C14F           -3.0581247265      -16.2330820450        3.8479534447  MEMB      18              0.0000000000
      1973        18  OSM       H14F           -3.9068219160      -16.6897911792        3.2952774246  MEMB      18              0.0000000000
      1974        18  OSM       H14G           -2.1331626736      -16.7690706873        3.5454919257  MEMB      18              0.0000000000
      1975        18  OSM       C15F           -3.0631749791      -14.7765060874        3.2684992844  MEMB      18              0.0000000000
      1976        18  OSM       H15F           -2.5580770205      -14.8692058228        2.2833061568  MEMB      18              0.0000000000
      1977        18  OSM       H15G           -2.5467730068      -14.0853308053        3.9684471146  MEMB      18              0.0000000000
      1978        18  OSM       C16F           -4.4885705564      -14.2573562872        2.9830769026  MEMB      18              0.0000000000
      1979        18  OSM       H16F           -4.3658512967      -13.1648008294        2.8231278288  MEMB      18              0.0000000000
      1980        18  OSM       H16G           -5.2340791583      -14.4537937277        3.7830453137  MEMB      18              0.0000000000
      1981        18  OSM       C17F           -5.0662596554      -14.7155828643        1.6233009874  MEMB      18              0.0000000000
      1982        18  OSM       H17F           -6.0992751279      -14.3067714653        1.6318512313  MEMB      18              0.0000000000
      1983        18  OSM       H17G           -5.1398046437      -15.8221251977        1.5563956610  MEMB      18              0.0000000000
      1984        18  OSM       C18F           -4.2703081724      -14.3277322613        0.3677298282  MEMB      18              0.0000000000
      1985        18  OSM       H18F           -4.7842016866      -14.6437232334       -0.5652132418  MEMB      18              0.0000000000
      1986        18  OSM       H18G           -3.3068914047      -14.8807757348        0.3848240376  MEMB      18              0.0000000000
      1987        18  OSM       H18H           -4.1342952058      -13.2251022592        0.3624246259  MEMB      18              0.0000000000
      1988        19  SAPI      C12            -9.0310060679       16.3141111046       23.4900126751  MEMB      19              0.0000000000
      1989        19  SAPI      H2             -9.7816617231       17.0759612980       23.1893112085  MEMB      19              0.0000000000
      1990        19  SAPI      O2             -7.8411404481       16.5267681690       22.7277141617  MEMB      19              0.0000000000
      1991        19  SAPI      HO2            -7.1332066438       15.9147734666       22.9419391881  MEMB      19              0.0000000000
      1992        19  SAPI      C13            -8.6692541143       16.5778366359       24.9227044963  MEMB      19              0.0000000000
      1993        19  SAPI      H3             -9.5711027432       16.3779861698       25.5399968683  MEMB      19              0.0000000000
      1994        19  SAPI      O3             -8.3235693827       17.9482667077       25.2010276575  MEMB      19              0.0000000000
      1995        19  SAPI      HO3            -7.5443197676       18.2262680518       24.7141137587  MEMB      19              0.0000000000
      1996        19  SAPI      C14            -7.6257150725       15.6142899206       25.3994328549  MEMB      19              0.0000000000
      1997        19  SAPI      H4             -6.6602924792       15.7902964814       24.8785660854  MEMB      19              0.0000000000
      1998        19  SAPI      O4             -7.3426860473       15.8959913528       26.7546729874  MEMB      19              0.0000000000
      1999        19  SAPI      HO4            -6.4546560471       16.2604550088       26.7676854679  MEMB      19              0.0000000000
      2000        19  SAPI      C15            -8.2632652460       14.1760283711       25.2748301643  MEMB      19              0.0000000000
      2001        19  SAPI      H5             -9.2371739245       14.1560412546       25.8090805038  MEMB      19              0.0000000000
      2002        19  SAPI      O5             -7.5612911916       13.1432477163       25.9145777150  MEMB      19              0.0000000000
      2003        19  SAPI      HO5            -6.8814911846       12.8491495611       25.3038577847  MEMB      19              0.0000000000
      2004        19  SAPI      C16            -8.5223219514       13.9100519097       23.7761552764  MEMB      19              0.0000000000
      2005        19  SAPI      H6             -7.5511820284       14.1288745616       23.2828755275  MEMB      19              0.0000000000
      2006        19  SAPI      O6             -8.8604772946       12.5335323227       23.5251596517  MEMB      19              0.0000000000
      2007        19  SAPI      HO6            -9.6166319755       12.6086411566       22.9384836217  MEMB      19              0.0000000000
      2008        19  SAPI      C11            -9.5933658753       14.9183050511       23.2582891981  MEMB      19              0.0000000000
      2009        19  SAPI      H1            -10.5346647802       14.7976457656       23.8359730885  MEMB      19              0.0000000000
      2010        19  SAPI      P             -11.2426070069       14.4788385129       21.2788033539  MEMB      19              0.0000000000
      2011        19  SAPI      O13           -12.1680307283       15.6002154890       21.4834638771  MEMB      19              0.0000000000
      2012        19  SAPI      O14           -11.6241234910       13.1612908013       21.8661130541  MEMB      19              0.0000000000
      2013        19  SAPI      O12            -9.7473566785       14.8813146968       21.8387427745  MEMB      19              0.0000000000
      2014        19  SAPI      O11           -11.0412900705       14.3029855020       19.6919986522  MEMB      19              0.0000000000
      2015        19  SAPI      C1            -10.4039804065       13.1096102655       19.2300287537  MEMB      19              0.0000000000
      2016        19  SAPI      HA             -9.5716600526       12.8260982487       19.9091345108  MEMB      19              0.0000000000
      2017        19  SAPI      HB            -11.1637206935       12.3039604045       19.1403409901  MEMB      19              0.0000000000
      2018        19  SAPI      C2             -9.9149498470       13.2793760428       17.7953673275  MEMB      19              0.0000000000
      2019        19  SAPI      HS             -9.1596462986       12.4826575694       17.6248472740  MEMB      19              0.0000000000
      2020        19  SAPI      O21            -9.2717614664       14.5821804814       17.6126702504  MEMB      19              0.0000000000
      2021        19  SAPI      C21            -8.2322270742       14.9273199723       18.5171077353  MEMB      19              0.0000000000
      2022        19  SAPI      O22            -7.7217832161       14.1402509536       19.2882372488  MEMB      19              0.0000000000
      2023        19  SAPI      C22            -7.8829224742       16.3796104654       18.3984236507  MEMB      19              0.0000000000
      2024        19  SAPI      H2R            -7.8997484401       16.9137973172       19.3724270076  MEMB      19              0.0000000000
      2025        19  SAPI      H2S            -6.9172080296       16.5115416757       17.8652160650  MEMB      19              0.0000000000
      2026        19  SAPI      C3            -11.0534985856       13.1257494730       16.8154822117  MEMB      19              0.0000000000
      2027        19  SAPI      HX            -11.5937619897       12.1709756933       16.9911051818  MEMB      19              0.0000000000
      2028        19  SAPI      HY            -10.7157537753       13.1503991929       15.7573508372  MEMB      19              0.0000000000
      2029        19  SAPI      O31           -11.8812435352       14.2605499519       17.0276151685  MEMB      19              0.0000000000
      2030        19  SAPI      C31           -13.2252575950       14.0778923867       16.9061221122  MEMB      19              0.0000000000
      2031        19  SAPI      O32           -13.7506843083       13.0392215606       16.5775689724  MEMB      19              0.0000000000
      2032        19  SAPI      C32           -13.9266197114       15.4107154752       17.1893326537  MEMB      19              0.0000000000
      2033        19  SAPI      H2X           -13.2782191817       16.2212758252       16.7932392774  MEMB      19              0.0000000000
      2034        19  SAPI      H2Y           -14.0287091498       15.6254339195       18.2745950558  MEMB      19              0.0000000000
      2035        19  SAPI      C23            -8.9369135410       17.0752428579       17.4935702613  MEMB      19              0.0000000000
      2036        19  SAPI      H3R            -8.8254573307       18.1327676365       17.8153460572  MEMB      19              0.0000000000
      2037        19  SAPI      H3S            -9.9929927694       16.7531985509       17.6172848848  MEMB      19              0.0000000000
      2038        19  SAPI      C24            -8.6427764670       17.1719705242       15.9617329503  MEMB      19              0.0000000000
      2039        19  SAPI      H4R            -7.8416039951       17.9399229892       16.0136276642  MEMB      19              0.0000000000
      2040        19  SAPI      H4S            -9.4593662511       17.6947717552       15.4193482753  MEMB      19              0.0000000000
      2041        19  SAPI      C25            -8.2108770770       15.8982998312       15.3608451445  MEMB      19              0.0000000000
      2042        19  SAPI      H5R            -7.3394204797       15.5546095269       15.9374214635  MEMB      19              0.0000000000
      2043        19  SAPI      C26            -8.6224595658       15.1572236513       14.3042338642  MEMB      19              0.0000000000
      2044        19  SAPI      H6R            -8.0979019886       14.2103090427       14.1088061341  MEMB      19              0.0000000000
      2045        19  SAPI      C27            -9.7212244921       15.5677538215       13.3976275075  MEMB      19              0.0000000000
      2046        19  SAPI      H7R           -10.5895347886       15.9644099008       13.9659775565  MEMB      19              0.0000000000
      2047        19  SAPI      H7S           -10.1150642335       14.6304825816       12.9495941376  MEMB      19              0.0000000000
      2048        19  SAPI      C28            -9.2813311876       16.3798136964       12.1973037905  MEMB      19              0.0000000000
      2049        19  SAPI      H8R            -9.7483199225       17.3753430456       12.2263337289  MEMB      19              0.0000000000
      2050        19  SAPI      C29            -8.8153886677       15.8907451695       11.0038509724  MEMB      19              0.0000000000
      2051        19  SAPI      H9R            -8.7171321837       16.6500245182       10.2140146810  MEMB      19              0.0000000000
      2052        19  SAPI      C210           -8.4896069818       14.5427233858       10.5342332391  MEMB      19              0.0000000000
      2053        19  SAPI      H10R           -9.4020156108       13.9359838914       10.3506612761  MEMB      19              0.0000000000
      2054        19  SAPI      H10S           -7.8916756087       13.9827041161       11.2846840499  MEMB      19              0.0000000000
      2055        19  SAPI      C211           -7.7232672671       14.5782071074        9.2621951096  MEMB      19              0.0000000000
      2056        19  SAPI      H11R           -6.7233952910       14.1268919473        9.3432539937  MEMB      19              0.0000000000
      2057        19  SAPI      C212           -8.0751539186       14.7781309460        7.9839443670  MEMB      19              0.0000000000
      2058        19  SAPI      H12R           -7.2706374968       14.9689750088        7.2584564335  MEMB      19              0.0000000000
      2059        19  SAPI      C213           -9.4991068027       15.0810180509        7.4567846561  MEMB      19              0.0000000000
      2060        19  SAPI      H13R          -10.1796121986       15.1857992263        8.3287098104  MEMB      19              0.0000000000
      2061        19  SAPI      H13S           -9.8785522277       14.2102729289        6.8804637185  MEMB      19              0.0000000000
      2062        19  SAPI      C214           -9.5056084383       16.3576533094        6.6997670504  MEMB      19              0.0000000000
      2063        19  SAPI      H14R           -9.8237427214       17.2805430283        7.2067828153  MEMB      19              0.0000000000
      2064        19  SAPI      C215           -9.1892143472       16.4028855251        5.3595361702  MEMB      19              0.0000000000
      2065        19  SAPI      H15R           -9.0567931501       17.3902171362        4.8930159564  MEMB      19              0.0000000000
      2066        19  SAPI      C216           -8.7756144361       15.2406337012        4.4546451169  MEMB      19              0.0000000000
      2067        19  SAPI      H16R           -9.3660850719       15.3659662966        3.5219300833  MEMB      19              0.0000000000
      2068        19  SAPI      H16S           -9.0247679185       14.2454570599        4.8811042572  MEMB      19              0.0000000000
      2069        19  SAPI      C217           -7.2917728635       15.0817066436        4.1663563424  MEMB      19              0.0000000000
      2070        19  SAPI      H17R           -7.1337695429       14.2915860181        3.4014622782  MEMB      19              0.0000000000
      2071        19  SAPI      H17S           -6.6958238139       14.7691482918        5.0503669992  MEMB      19              0.0000000000
      2072        19  SAPI      C218           -6.4964173648       16.2725152699        3.5948208739  MEMB      19              0.0000000000
      2073        19  SAPI      H18R           -5.5031234859       15.8498372999        3.3320834223  MEMB      19              0.0000000000
      2074        19  SAPI      H18S           -6.3110179627       16.9207955895        4.4778160860  MEMB      19              0.0000000000
      2075        19  SAPI      C219           -6.9269200824       16.9918189755        2.2835647461  MEMB      19              0.0000000000
      2076        19  SAPI      H19R           -7.7620130948       17.6259142035        2.6508016868  MEMB      19              0.0000000000
      2077        19  SAPI      H19S           -7.4831789848       16.2533652548        1.6674609536  MEMB      19              0.0000000000
      2078        19  SAPI      C220           -5.8036038879       17.7705484802        1.5717324999  MEMB      19              0.0000000000
      2079        19  SAPI      H20R           -4.8290703148       17.2892374664        1.8018310133  MEMB      19              0.0000000000
      2080        19  SAPI      H20S           -5.8480937385       18.7866158284        2.0188887156  MEMB      19              0.0000000000
      2081        19  SAPI      H20T           -5.9559994246       17.9160858890        0.4808988343  MEMB      19              0.0000000000
      2082        19  SAPI      C33           -15.3077660812       15.5232674580       16.3976761487  MEMB      19              0.0000000000
      2083        19  SAPI      H3X           -15.7583395413       16.5230312218       16.5759380302  MEMB      19              0.0000000000
      2084        19  SAPI      H3Y           -16.0785061355       14.8402175583       16.8144777910  MEMB      19              0.0000000000
      2085        19  SAPI      C34           -15.1968688520       15.3440849399       14.8464834303  MEMB      19              0.0000000000
      2086        19  SAPI      H4X           -16.1958819749       15.6095426364       14.4392661644  MEMB      19              0.0000000000
      2087        19  SAPI      H4Y           -15.0878396211       14.3282456893       14.4100156999  MEMB      19              0.0000000000
      2088        19  SAPI      C35           -14.1673824642       16.2937406229       14.2554250793  MEMB      19              0.0000000000
      2089        19  SAPI      H5X           -13.1726847128       15.9221007897       14.5821982902  MEMB      19              0.0000000000
      2090        19  SAPI      H5Y           -14.1715319445       17.3427733516       14.6212588331  MEMB      19              0.0000000000
      2091        19  SAPI      C36           -14.1656555952       16.3590321398       12.7615326704  MEMB      19              0.0000000000
      2092        19  SAPI      H6X           -13.1514656648       16.7135644739       12.4786068806  MEMB      19              0.0000000000
      2093        19  SAPI      H6Y           -14.9713045594       16.9896809999       12.3284826525  MEMB      19              0.0000000000
      2094        19  SAPI      C37           -14.3120146175       14.9868174667       12.0573647339  MEMB      19              0.0000000000
      2095        19  SAPI      H7X           -15.3813726994       14.6884967690       12.0997798220  MEMB      19              0.0000000000
      2096        19  SAPI      H7Y           -13.7016690252       14.1950273039       12.5419963425  MEMB      19              0.0000000000
      2097        19  SAPI      C38           -13.9507293798       15.0887311367       10.5632640349  MEMB      19              0.0000000000
      2098        19  SAPI      H8X           -13.0002154987       15.6549115307       10.4618534875  MEMB      19              0.0000000000
      2099        19  SAPI      H8Y           -14.7901880432       15.5387089330        9.9912938886  MEMB      19              0.0000000000
      2100        19  SAPI      C39           -13.7537515171       13.7197901996        9.9438963881  MEMB      19              0.0000000000
      2101        19  SAPI      H9X           -14.6403953057       13.0948939414       10.1840809062  MEMB      19              0.0000000000
      2102        19  SAPI      H9Y           -12.8866613416       13.1962154789       10.4003451630  MEMB      19              0.0000000000
      2103        19  SAPI      C310          -13.6511793627       13.5360635421        8.3979595630  MEMB      19              0.0000000000
      2104        19  SAPI      H10X          -12.8270533027       14.1620049028        7.9938125064  MEMB      19              0.0000000000
      2105        19  SAPI      H10Y          -14.5837283639       13.9978341047        8.0088050800  MEMB      19              0.0000000000
      2106        19  SAPI      C311          -13.4902636495       12.1206163871        7.9968700659  MEMB      19              0.0000000000
      2107        19  SAPI      H11X          -14.3207771752       11.3886770410        8.0908537536  MEMB      19              0.0000000000
      2108        19  SAPI      H11Y          -12.7113129985       11.5807165946        8.5765813675  MEMB      19              0.0000000000
      2109        19  SAPI      C312          -13.0201720018       12.0043232268        6.5042475689  MEMB      19              0.0000000000
      2110        19  SAPI      H12X          -12.7959603672       10.9250441421        6.3656588038  MEMB      19              0.0000000000
      2111        19  SAPI      H12Y          -12.1149538501       12.6482107692        6.4866429250  MEMB      19              0.0000000000
      2112        19  SAPI      C313          -13.9856810600       12.4101147968        5.3998746037  MEMB      19              0.0000000000
      2113        19  SAPI      H13X          -14.3652037165       13.4194342797        5.6673770470  MEMB      19              0.0000000000
      2114        19  SAPI      H13Y          -14.8492588798       11.7154291164        5.3226382318  MEMB      19              0.0000000000
      2115        19  SAPI      C314          -13.4496221089       12.6663079764        3.9827323595  MEMB      19              0.0000000000
      2116        19  SAPI      H14X          -14.2631837857       12.8992418827        3.2628846706  MEMB      19              0.0000000000
      2117        19  SAPI      H14Y          -13.0403950808       11.6865413137        3.6557591523  MEMB      19              0.0000000000
      2118        19  SAPI      C315          -12.4408217434       13.8381184292        3.9786506760  MEMB      19              0.0000000000
      2119        19  SAPI      H15X          -11.6106136840       13.5958617935        4.6760651876  MEMB      19              0.0000000000
      2120        19  SAPI      H15Y          -12.8422955415       14.7627896610        4.4456869259  MEMB      19              0.0000000000
      2121        19  SAPI      C316          -11.9050532908       14.0893768835        2.5661258887  MEMB      19              0.0000000000
      2122        19  SAPI      H16X          -11.2958748605       15.0148528308        2.6480835003  MEMB      19              0.0000000000
      2123        19  SAPI      H16Y          -12.6975779461       14.2821375058        1.8117611507  MEMB      19              0.0000000000
      2124        19  SAPI      C317          -11.0782850092       12.9801091817        1.8381600186  MEMB      19              0.0000000000
      2125        19  SAPI      H17X          -11.4978991992       12.0083939356        2.1758186792  MEMB      19              0.0000000000
      2126        19  SAPI      H17Y          -10.0587493627       13.0806909860        2.2679865332  MEMB      19              0.0000000000
      2127        19  SAPI      C318          -11.0504544374       13.0180528415        0.2722927346  MEMB      19              0.0000000000
      2128        19  SAPI      H18X          -12.0100956699       12.6003143707       -0.1004055547  MEMB      19              0.0000000000
      2129        19  SAPI      H18Y          -10.1829353171       12.5164177642       -0.2073881806  MEMB      19              0.0000000000
      2130        19  SAPI      H18Z          -11.0587501612       14.1051115126        0.0430432319  MEMB      19              0.0000000000
      2131        20  SAPE      N              16.9901963823       -6.2673512465       22.5067871154  MEMB      20              0.0000000000
      2132        20  SAPE      HN1            16.7978111368       -6.9497586135       21.7459270846  MEMB      20              0.0000000000
      2133        20  SAPE      HN2            16.6534768287       -6.5843748032       23.4383000055  MEMB      20              0.0000000000
      2134        20  SAPE      HN3            16.5031132939       -5.3951210348       22.2177120101  MEMB      20              0.0000000000
      2135        20  SAPE      C12            18.5417251012       -6.2546078120       22.4069461496  MEMB      20              0.0000000000
      2136        20  SAPE      H12A           18.8961134410       -7.2489548904       22.7533615538  MEMB      20              0.0000000000
      2137        20  SAPE      H12B           18.8649206508       -5.4877638933       23.1430276068  MEMB      20              0.0000000000
      2138        20  SAPE      C11            19.0990677393       -6.0774758445       21.0514461515  MEMB      20              0.0000000000
      2139        20  SAPE      H11A           19.1585125894       -7.0427183563       20.5045511218  MEMB      20              0.0000000000
      2140        20  SAPE      H11B           20.1883453343       -5.8820296029       21.1494056468  MEMB      20              0.0000000000
      2141        20  SAPE      P              18.4631230567       -5.1823071024       18.7273781386  MEMB      20              0.0000000000
      2142        20  SAPE      O13            19.7856485378       -5.7430143158       18.3377606333  MEMB      20              0.0000000000
      2143        20  SAPE      O14            17.2145976694       -5.8356454305       18.2965500311  MEMB      20              0.0000000000
      2144        20  SAPE      O12            18.3705243561       -5.0138101065       20.3682737310  MEMB      20              0.0000000000
      2145        20  SAPE      O11            18.3607147590       -3.6470873947       18.3048580608  MEMB      20              0.0000000000
      2146        20  SAPE      C1             17.3722152190       -2.8529559907       18.9071740717  MEMB      20              0.0000000000
      2147        20  SAPE      HA             16.5770596483       -3.4743090986       19.3718985911  MEMB      20              0.0000000000
      2148        20  SAPE      HB             17.7676291209       -2.2189498241       19.7293694695  MEMB      20              0.0000000000
      2149        20  SAPE      C2             16.6377133995       -1.9229976614       17.9361291328  MEMB      20              0.0000000000
      2150        20  SAPE      HS             15.7440007709       -1.5337731794       18.4691423850  MEMB      20              0.0000000000
      2151        20  SAPE      O21            16.2568136671       -2.7422046312       16.8080635572  MEMB      20              0.0000000000
      2152        20  SAPE      C21            15.1287837473       -2.4340222787       16.0976126880  MEMB      20              0.0000000000
      2153        20  SAPE      O22            14.2745238543       -1.6981039236       16.4868406656  MEMB      20              0.0000000000
      2154        20  SAPE      C22            15.2432327048       -3.2779147242       14.8443575382  MEMB      20              0.0000000000
      2155        20  SAPE      H2R            15.6369455527       -4.2831430581       15.1067065202  MEMB      20              0.0000000000
      2156        20  SAPE      H2S            14.2438498169       -3.5212529154       14.4244272573  MEMB      20              0.0000000000
      2157        20  SAPE      C3             17.4998301311       -0.7362871959       17.5368242298  MEMB      20              0.0000000000
      2158        20  SAPE      HX             18.0974424220       -0.2615581885       18.3441734899  MEMB      20              0.0000000000
      2159        20  SAPE      HY             16.7376938018        0.0179219060       17.2458975036  MEMB      20              0.0000000000
      2160        20  SAPE      O31            18.3486766305       -0.9788570891       16.4198699811  MEMB      20              0.0000000000
      2161        20  SAPE      C31            19.6871848755       -0.9870907890       16.5908895699  MEMB      20              0.0000000000
      2162        20  SAPE      O32            20.2442656697       -0.7578696607       17.6350589950  MEMB      20              0.0000000000
      2163        20  SAPE      C32            20.4971713317       -1.4988525974       15.3843069814  MEMB      20              0.0000000000
      2164        20  SAPE      H2X            21.5896033725       -1.5047949083       15.5864885250  MEMB      20              0.0000000000
      2165        20  SAPE      H2Y            20.2696216348       -0.8569772500       14.5065034798  MEMB      20              0.0000000000
      2166        20  SAPE      C23            16.2042966483       -2.6865037901       13.7634655056  MEMB      20              0.0000000000
      2167        20  SAPE      H3R            16.3601430850       -3.3998501183       12.9261069259  MEMB      20              0.0000000000
      2168        20  SAPE      H3S            17.1814405723       -2.6383714489       14.2899577924  MEMB      20              0.0000000000
      2169        20  SAPE      C24            15.7554147327       -1.3698895841       13.0194211231  MEMB      20              0.0000000000
      2170        20  SAPE      H4R            16.4781543883       -1.0742133763       12.2291399528  MEMB      20              0.0000000000
      2171        20  SAPE      H4S            15.9498519315       -0.5070883352       13.6917972411  MEMB      20              0.0000000000
      2172        20  SAPE      C25            14.3007142689       -1.5131273640       12.5408432362  MEMB      20              0.0000000000
      2173        20  SAPE      H5R            13.5404623092       -1.3430498471       13.3174321285  MEMB      20              0.0000000000
      2174        20  SAPE      C26            13.8815799749       -1.8761074338       11.3338631837  MEMB      20              0.0000000000
      2175        20  SAPE      H6R            12.8191616800       -1.7886717085       11.0625284820  MEMB      20              0.0000000000
      2176        20  SAPE      C27            14.8100097031       -2.2556141006       10.2059072159  MEMB      20              0.0000000000
      2177        20  SAPE      H7R            14.6155241102       -3.3139744219        9.9295564831  MEMB      20              0.0000000000
      2178        20  SAPE      H7S            15.8379623913       -2.2601050169       10.6273495054  MEMB      20              0.0000000000
      2179        20  SAPE      C28            14.7062493189       -1.3808816617        9.0393116422  MEMB      20              0.0000000000
      2180        20  SAPE      H8R            13.7375563401       -1.4865153812        8.5289436859  MEMB      20              0.0000000000
      2181        20  SAPE      C29            15.6819183111       -0.6211229496        8.5354847757  MEMB      20              0.0000000000
      2182        20  SAPE      H9R            15.3231461006        0.1367805139        7.8235401453  MEMB      20              0.0000000000
      2183        20  SAPE      C210           17.1302176070       -0.4221692816        9.0605916269  MEMB      20              0.0000000000
      2184        20  SAPE      H10R           17.7194240188       -1.3106738706        8.7479954908  MEMB      20              0.0000000000
      2185        20  SAPE      H10S           17.1821030105       -0.3858747554       10.1697853611  MEMB      20              0.0000000000
      2186        20  SAPE      C211           17.8171989969        0.8454947328        8.6163734586  MEMB      20              0.0000000000
      2187        20  SAPE      H11R           17.7380706315        1.6898016129        9.3170052093  MEMB      20              0.0000000000
      2188        20  SAPE      C212           18.8674802592        0.8889420580        7.8091938661  MEMB      20              0.0000000000
      2189        20  SAPE      H12R           19.3144517559        1.8907334467        7.7277687297  MEMB      20              0.0000000000
      2190        20  SAPE      C213           19.5840052694       -0.2728106983        7.1237630236  MEMB      20              0.0000000000
      2191        20  SAPE      H13R           19.0147084491       -1.2205290510        7.2335436634  MEMB      20              0.0000000000
      2192        20  SAPE      H13S           20.5690025287       -0.4134264125        7.6180597883  MEMB      20              0.0000000000
      2193        20  SAPE      C214           19.7648252391        0.0923087487        5.7042650702  MEMB      20              0.0000000000
      2194        20  SAPE      H14R           20.6576378197        0.7336364784        5.7440769235  MEMB      20              0.0000000000
      2195        20  SAPE      C215           19.1728379349       -0.1017376757        4.5301144467  MEMB      20              0.0000000000
      2196        20  SAPE      H15R           19.5971041299        0.1179256363        3.5392844055  MEMB      20              0.0000000000
      2197        20  SAPE      C216           17.9740333377       -0.8824689678        4.2970520697  MEMB      20              0.0000000000
      2198        20  SAPE      H16R           18.1405088060       -1.9000106150        4.7108348443  MEMB      20              0.0000000000
      2199        20  SAPE      H16S           17.7520915907       -1.0820348049        3.2268948762  MEMB      20              0.0000000000
      2200        20  SAPE      C217           16.7167393049       -0.2460112400        4.9579426488  MEMB      20              0.0000000000
      2201        20  SAPE      H17R           16.5687026559        0.7870483348        4.5768986440  MEMB      20              0.0000000000
      2202        20  SAPE      H17S           16.8957832777       -0.2997367119        6.0531032834  MEMB      20              0.0000000000
      2203        20  SAPE      C218           15.4172819370       -1.0665542978        4.7720968685  MEMB      20              0.0000000000
      2204        20  SAPE      H18R           14.7673193765       -0.7674910040        5.6220561849  MEMB      20              0.0000000000
      2205        20  SAPE      H18S           15.7049495212       -2.1349627072        4.8724564665  MEMB      20              0.0000000000
      2206        20  SAPE      C219           14.6938606874       -0.8561029802        3.4768144209  MEMB      20              0.0000000000
      2207        20  SAPE      H19R           15.3510725494       -1.2425130880        2.6686812232  MEMB      20              0.0000000000
      2208        20  SAPE      H19S           14.6115948362        0.2444478517        3.3489821048  MEMB      20              0.0000000000
      2209        20  SAPE      C220           13.3182861140       -1.5851636659        3.4754280649  MEMB      20              0.0000000000
      2210        20  SAPE      H20R           12.7965005878       -1.4845708351        4.4511040511  MEMB      20              0.0000000000
      2211        20  SAPE      H20S           13.4428469865       -2.6866832756        3.4015351934  MEMB      20              0.0000000000
      2212        20  SAPE      H20T           12.6866973565       -1.1005081944        2.7004928653  MEMB      20              0.0000000000
      2213        20  SAPE      C33            20.0650355042       -2.8912140066       15.1087213406  MEMB      20              0.0000000000
      2214        20  SAPE      H3X            19.0090957866       -2.7758691528       14.7831328356  MEMB      20              0.0000000000
      2215        20  SAPE      H3Y            20.2199781201       -3.5556982143       15.9855192255  MEMB      20              0.0000000000
      2216        20  SAPE      C34            20.7974735280       -3.4488227565       13.8858805895  MEMB      20              0.0000000000
      2217        20  SAPE      H4X            21.9008546406       -3.4559144757       14.0155756613  MEMB      20              0.0000000000
      2218        20  SAPE      H4Y            20.6186963336       -2.8212192158       12.9867289100  MEMB      20              0.0000000000
      2219        20  SAPE      C35            20.5034535269       -4.9396214237       13.6039769881  MEMB      20              0.0000000000
      2220        20  SAPE      H5X            19.4724496029       -5.2602971150       13.8657382267  MEMB      20              0.0000000000
      2221        20  SAPE      H5Y            21.2052149168       -5.5187159722       14.2415519620  MEMB      20              0.0000000000
      2222        20  SAPE      C36            20.6768754169       -5.2883738442       12.1015307822  MEMB      20              0.0000000000
      2223        20  SAPE      H6X            21.6518279057       -5.0376064734       11.6315261615  MEMB      20              0.0000000000
      2224        20  SAPE      H6Y            19.9937569422       -4.6259330484       11.5280830680  MEMB      20              0.0000000000
      2225        20  SAPE      C37            20.4374718715       -6.7527051132       11.8224111819  MEMB      20              0.0000000000
      2226        20  SAPE      H7X            19.4317484507       -7.1420852706       12.0892901552  MEMB      20              0.0000000000
      2227        20  SAPE      H7Y            21.1053646725       -7.1341730710       12.6241110548  MEMB      20              0.0000000000
      2228        20  SAPE      C38            20.8554611474       -7.1400949421       10.3727985986  MEMB      20              0.0000000000
      2229        20  SAPE      H8X            20.8062345219       -8.2493552351       10.4107452142  MEMB      20              0.0000000000
      2230        20  SAPE      H8Y            21.8797636781       -6.7781860930       10.1401025585  MEMB      20              0.0000000000
      2231        20  SAPE      C39            19.7916192892       -6.8304956487        9.2745627399  MEMB      20              0.0000000000
      2232        20  SAPE      H9X            19.6775648176       -5.7318001688        9.1554793885  MEMB      20              0.0000000000
      2233        20  SAPE      H9Y            18.8229922165       -7.2745674723        9.5890193506  MEMB      20              0.0000000000
      2234        20  SAPE      C310           20.0132842823       -7.4190054654        7.9254572247  MEMB      20              0.0000000000
      2235        20  SAPE      H10X           20.2447199567       -8.5032938648        7.9967106314  MEMB      20              0.0000000000
      2236        20  SAPE      H10Y           20.9265264114       -6.9532889190        7.4971837741  MEMB      20              0.0000000000
      2237        20  SAPE      C311           18.7576134933       -7.2616061531        7.0660069105  MEMB      20              0.0000000000
      2238        20  SAPE      H11X           17.8198616437       -7.5810650791        7.5688872368  MEMB      20              0.0000000000
      2239        20  SAPE      H11Y           18.9318892132       -7.7776699100        6.0976953578  MEMB      20              0.0000000000
      2240        20  SAPE      C312           18.5674716882       -5.7669212871        6.6672413503  MEMB      20              0.0000000000
      2241        20  SAPE      H12X           19.4476191981       -5.4067198929        6.0928576451  MEMB      20              0.0000000000
      2242        20  SAPE      H12Y           18.2840600484       -5.1376714572        7.5378980182  MEMB      20              0.0000000000
      2243        20  SAPE      C313           17.3961046953       -5.5304576723        5.8298640996  MEMB      20              0.0000000000
      2244        20  SAPE      H13X           17.2351867433       -4.4382655761        5.7051929858  MEMB      20              0.0000000000
      2245        20  SAPE      H13Y           16.4832617958       -5.8105430276        6.3978349494  MEMB      20              0.0000000000
      2246        20  SAPE      C314           17.4480840997       -6.1658892220        4.4345379353  MEMB      20              0.0000000000
      2247        20  SAPE      H14X           17.6485317023       -7.2566408880        4.5008921409  MEMB      20              0.0000000000
      2248        20  SAPE      H14Y           18.2637379491       -5.7196313406        3.8263575177  MEMB      20              0.0000000000
      2249        20  SAPE      C315           16.1294935011       -5.9571486389        3.6868896699  MEMB      20              0.0000000000
      2250        20  SAPE      H15X           15.8981999988       -4.8809479233        3.5365003913  MEMB      20              0.0000000000
      2251        20  SAPE      H15Y           15.3425869376       -6.3319198232        4.3758351200  MEMB      20              0.0000000000
      2252        20  SAPE      C316           16.1629262554       -6.6162065476        2.3098741264  MEMB      20              0.0000000000
      2253        20  SAPE      H16X           15.1525978894       -6.6165231867        1.8477526891  MEMB      20              0.0000000000
      2254        20  SAPE      H16Y           16.4010016778       -7.6804962512        2.5218391179  MEMB      20              0.0000000000
      2255        20  SAPE      C317           17.1550450435       -6.0382065914        1.3259329230  MEMB      20              0.0000000000
      2256        20  SAPE      H17X           16.9297548313       -6.5591786170        0.3708662239  MEMB      20              0.0000000000
      2257        20  SAPE      H17Y           18.1901919465       -6.2265978681        1.6827260574  MEMB      20              0.0000000000
      2258        20  SAPE      C318           16.9036020139       -4.5225958672        1.0619894317  MEMB      20              0.0000000000
      2259        20  SAPE      H18X           17.2576684675       -3.9175238035        1.9238749684  MEMB      20              0.0000000000
      2260        20  SAPE      H18Y           15.8006558773       -4.3893064473        1.0700066455  MEMB      20              0.0000000000
      2261        20  SAPE      H18Z           17.2448378834       -4.2316508068        0.0455105616  MEMB      20              0.0000000000
      2262        21  CHL1      C3             16.7061917026        9.3139037493       17.3006400000  MEMB      21              0.0000000000
      2263        21  CHL1      H3             16.5204568101        8.2294359289       17.1465200000  MEMB      21              0.0000000000
      2264        21  CHL1      O3             16.7952712974        9.6185104507       18.6993600000  MEMB      21              0.0000000000
      2265        21  CHL1      H3'            16.2524620360        8.9759751316       19.1620600000  MEMB      21              0.0000000000
      2266        21  CHL1      C4             17.9845620373        9.8359153801       16.5948600000  MEMB      21              0.0000000000
      2267        21  CHL1      H4A            18.1997654467       10.8828626966       16.8980500000  MEMB      21              0.0000000000
      2268        21  CHL1      H4B            18.8940276079        9.2966683154       16.9360400000  MEMB      21              0.0000000000
      2269        21  CHL1      C5             17.9501303799        9.7428710414       15.0822700000  MEMB      21              0.0000000000
      2270        21  CHL1      C6             18.9309808401        9.1889844910       14.3680800000  MEMB      21              0.0000000000
      2271        21  CHL1      H6             19.7837069112        8.7963366541       14.9414000000  MEMB      21              0.0000000000
      2272        21  CHL1      C7             18.8816709468        9.1300594503       12.8706400000  MEMB      21              0.0000000000
      2273        21  CHL1      H7A            19.8551412128        9.3796447451       12.3969700000  MEMB      21              0.0000000000
      2274        21  CHL1      H7B            18.7420942802        8.0777937630       12.5426600000  MEMB      21              0.0000000000
      2275        21  CHL1      C8             17.7848237942       10.0513759942       12.1538000000  MEMB      21              0.0000000000
      2276        21  CHL1      H8             18.1867856834       11.0863631677       12.1931200000  MEMB      21              0.0000000000
      2277        21  CHL1      C14            17.4624198656        9.4503259405       10.7728700000  MEMB      21              0.0000000000
      2278        21  CHL1      H14            16.8708604293        8.5214512541       10.9197200000  MEMB      21              0.0000000000
      2279        21  CHL1      C15            18.6088889147        9.0555421780        9.9403200000  MEMB      21              0.0000000000
      2280        21  CHL1      H15A           19.3278126697        9.9023128064        9.9616900000  MEMB      21              0.0000000000
      2281        21  CHL1      H15B           19.1299764221        8.1291384127       10.2637100000  MEMB      21              0.0000000000
      2282        21  CHL1      C16            17.9615396902        8.8912504898        8.5103500000  MEMB      21              0.0000000000
      2283        21  CHL1      H16A           18.4951401163        9.5461761218        7.7887800000  MEMB      21              0.0000000000
      2284        21  CHL1      H16B           17.9209655791        7.8601224231        8.0987200000  MEMB      21              0.0000000000
      2285        21  CHL1      C17            16.4012365410        9.2906064871        8.6999100000  MEMB      21              0.0000000000
      2286        21  CHL1      H17            15.9251409909        8.3418297540        9.0277500000  MEMB      21              0.0000000000
      2287        21  CHL1      C13            16.4374003463       10.1932498010        9.9670500000  MEMB      21              0.0000000000
      2288        21  CHL1      C18            16.8774822862       11.5991212964        9.6550800000  MEMB      21              0.0000000000
      2289        21  CHL1      H18A           16.0533188540       12.1447473241        9.1477700000  MEMB      21              0.0000000000
      2290        21  CHL1      H18B           17.0289740631       12.1422501845       10.6123600000  MEMB      21              0.0000000000
      2291        21  CHL1      H18C           17.8210206391       11.6756457017        9.0735300000  MEMB      21              0.0000000000
      2292        21  CHL1      C12            15.2003510283       10.3249359463       10.7632400000  MEMB      21              0.0000000000
      2293        21  CHL1      H12A           14.4080400805       11.0322627973       10.4372800000  MEMB      21              0.0000000000
      2294        21  CHL1      H12B           14.8327934420        9.2778866529       10.8172000000  MEMB      21              0.0000000000
      2295        21  CHL1      C11            15.3825688124       10.8369623301       12.1901600000  MEMB      21              0.0000000000
      2296        21  CHL1      H11A           15.7108904383       11.8982525473       12.1762400000  MEMB      21              0.0000000000
      2297        21  CHL1      H11B           14.3849882380       10.5975420845       12.6165900000  MEMB      21              0.0000000000
      2298        21  CHL1      C9             16.4624685655        9.9521903186       12.9515400000  MEMB      21              0.0000000000
      2299        21  CHL1      H9             16.0753753386        8.9155812379       12.8519700000  MEMB      21              0.0000000000
      2300        21  CHL1      C10            16.6451132522       10.3762754017       14.4538700000  MEMB      21              0.0000000000
      2301        21  CHL1      C19            16.8930402928       11.9251077891       14.5857300000  MEMB      21              0.0000000000
      2302        21  CHL1      H19A           15.9595481455       12.4463106938       14.2836400000  MEMB      21              0.0000000000
      2303        21  CHL1      H19B           17.0725299057       12.3948664927       15.5764100000  MEMB      21              0.0000000000
      2304        21  CHL1      H19C           17.6926181059       12.3224314068       13.9245700000  MEMB      21              0.0000000000
      2305        21  CHL1      C1             15.4283968330        9.9235074023       15.2411800000  MEMB      21              0.0000000000
      2306        21  CHL1      H1A            14.5205325475       10.4341669298       14.8547400000  MEMB      21              0.0000000000
      2307        21  CHL1      H1B            15.3452445657        8.8407671819       15.0065000000  MEMB      21              0.0000000000
      2308        21  CHL1      C2             15.5445318482       10.1361667410       16.7676300000  MEMB      21              0.0000000000
      2309        21  CHL1      H2A            14.5643189549        9.7977225723       17.1663100000  MEMB      21              0.0000000000
      2310        21  CHL1      H2B            15.6219491281       11.2279138321       16.9584600000  MEMB      21              0.0000000000
      2311        21  CHL1      C20            15.7329649026        9.7436615153        7.3540800000  MEMB      21              0.0000000000
      2312        21  CHL1      H20            16.3696506592       10.5525231181        6.9361200000  MEMB      21              0.0000000000
      2313        21  CHL1      C21            14.3759368894       10.4807642921        7.4747600000  MEMB      21              0.0000000000
      2314        21  CHL1      H21A           13.6348502674        9.6930674593        7.7290100000  MEMB      21              0.0000000000
      2315        21  CHL1      H21B           14.0618920722       10.9997149904        6.5439700000  MEMB      21              0.0000000000
      2316        21  CHL1      H21C           14.4842268160       11.3158937800        8.1994500000  MEMB      21              0.0000000000
      2317        21  CHL1      C22            15.7451797694        8.6726904678        6.2499600000  MEMB      21              0.0000000000
      2318        21  CHL1      H22A           16.7191038879        8.1380895854        6.2510300000  MEMB      21              0.0000000000
      2319        21  CHL1      H22B           15.1033701845        7.7992087861        6.4937400000  MEMB      21              0.0000000000
      2320        21  CHL1      C23            15.3725454070        9.1092846922        4.8438600000  MEMB      21              0.0000000000
      2321        21  CHL1      H23A           14.3446979745        9.5285488645        4.8892600000  MEMB      21              0.0000000000
      2322        21  CHL1      H23B           16.1424477944        9.8218074859        4.4779700000  MEMB      21              0.0000000000
      2323        21  CHL1      C24            15.5200163976        7.9245622691        3.9510700000  MEMB      21              0.0000000000
      2324        21  CHL1      H24A           16.6019771803        7.8080573561        3.7272000000  MEMB      21              0.0000000000
      2325        21  CHL1      H24B           15.0339141771        7.0407221709        4.4167500000  MEMB      21              0.0000000000
      2326        21  CHL1      C25            14.8168959002        8.0408689873        2.6080000000  MEMB      21              0.0000000000
      2327        21  CHL1      H25            15.1072816025        9.0106719524        2.1503000000  MEMB      21              0.0000000000
      2328        21  CHL1      C26            15.2971903342        6.8997767203        1.6229600000  MEMB      21              0.0000000000
      2329        21  CHL1      H26A           14.9732016256        5.8979720167        1.9775600000  MEMB      21              0.0000000000
      2330        21  CHL1      H26B           14.7590105542        7.0400394444        0.6611900000  MEMB      21              0.0000000000
      2331        21  CHL1      H26C           16.4002882784        6.9395025795        1.4968000000  MEMB      21              0.0000000000
      2332        21  CHL1      C27            13.2943814801        7.9890180702        2.7048100000  MEMB      21              0.0000000000
      2333        21  CHL1      H27A           12.8299265875        7.0808741206        3.1451300000  MEMB      21              0.0000000000
      2334        21  CHL1      H27B           12.9992530988        8.9422744975        3.1932000000  MEMB      21              0.0000000000
      2335        21  CHL1      H27C           12.8998126442        8.0631544602        1.6688800000  MEMB      21              0.0000000000
      2336        22  SAPE      N              12.7541742631      -13.1932682375       19.4630314269  MEMB      22              0.0000000000
      2337        22  SAPE      HN1            12.3587036999      -13.6694620197       20.2987601687  MEMB      22              0.0000000000
      2338        22  SAPE      HN2            12.0317618583      -13.1519746356       18.7160272487  MEMB      22              0.0000000000
      2339        22  SAPE      HN3            13.4813592041      -13.8775565130       19.1722537068  MEMB      22              0.0000000000
      2340        22  SAPE      C12            13.2015790179      -11.8014313413       19.7567668307  MEMB      22              0.0000000000
      2341        22  SAPE      H12A           12.6472860628      -11.4126394059       20.6376306905  MEMB      22              0.0000000000
      2342        22  SAPE      H12B           12.8910019605      -11.2957429174       18.8175427019  MEMB      22              0.0000000000
      2343        22  SAPE      C11            14.7586250097      -11.6355587144       19.7414620372  MEMB      22              0.0000000000
      2344        22  SAPE      H11A           14.9905385250      -10.5578355020       19.8794824778  MEMB      22              0.0000000000
      2345        22  SAPE      H11B           15.0838003544      -12.0101350000       18.7473420023  MEMB      22              0.0000000000
      2346        22  SAPE      P              16.2967792407      -13.7565289976       20.2435117215  MEMB      22              0.0000000000
      2347        22  SAPE      O13            17.2671011163      -14.0480288880       21.3410798945  MEMB      22              0.0000000000
      2348        22  SAPE      O14            15.3703390493      -14.8783788737       19.9072179604  MEMB      22              0.0000000000
      2349        22  SAPE      O12            15.4636883470      -12.4722628783       20.6390195392  MEMB      22              0.0000000000
      2350        22  SAPE      O11            17.1280699399      -13.3349004663       18.9079105727  MEMB      22              0.0000000000
      2351        22  SAPE      C1             17.0163650166      -14.0265997426       17.6454197172  MEMB      22              0.0000000000
      2352        22  SAPE      HA             17.5402510416      -15.0059880849       17.6196704195  MEMB      22              0.0000000000
      2353        22  SAPE      HB             15.9445112492      -14.2175477501       17.4240842230  MEMB      22              0.0000000000
      2354        22  SAPE      C2             17.6249886624      -13.1519488404       16.5054958325  MEMB      22              0.0000000000
      2355        22  SAPE      HS             18.6709146764      -12.8463249405       16.7221833239  MEMB      22              0.0000000000
      2356        22  SAPE      O21            16.8092181302      -11.9860518067       16.4526700888  MEMB      22              0.0000000000
      2357        22  SAPE      C21            17.1741009304      -11.0103759725       15.7035172458  MEMB      22              0.0000000000
      2358        22  SAPE      O22            18.1418919216      -10.9149196207       14.9714554379  MEMB      22              0.0000000000
      2359        22  SAPE      C22            16.2316091211       -9.7902738372       15.9064537612  MEMB      22              0.0000000000
      2360        22  SAPE      H2R            16.2286474932       -9.6050392154       17.0018990450  MEMB      22              0.0000000000
      2361        22  SAPE      H2S            16.8204854801       -9.0129489476       15.3741839058  MEMB      22              0.0000000000
      2362        22  SAPE      C3             17.5745811019      -14.0178686074       15.1545823224  MEMB      22              0.0000000000
      2363        22  SAPE      HX             16.5766987238      -13.7937097614       14.7206412455  MEMB      22              0.0000000000
      2364        22  SAPE      HY             17.7194978799      -15.1026036545       15.3460763715  MEMB      22              0.0000000000
      2365        22  SAPE      O31            18.4906874058      -13.5273402720       14.2003397664  MEMB      22              0.0000000000
      2366        22  SAPE      C31            18.5091921016      -14.0686144410       13.0087376581  MEMB      22              0.0000000000
      2367        22  SAPE      O32            17.7835177667      -14.9586332670       12.6062397752  MEMB      22              0.0000000000
      2368        22  SAPE      C32            19.6716911112      -13.6164903829       12.1903150240  MEMB      22              0.0000000000
      2369        22  SAPE      H2X            19.9441395157      -14.4089526894       11.4608661182  MEMB      22              0.0000000000
      2370        22  SAPE      H2Y            20.5039784857      -13.6636278526       12.9247517453  MEMB      22              0.0000000000
      2371        22  SAPE      C23            14.8388180428      -10.0916686231       15.4228811963  MEMB      22              0.0000000000
      2372        22  SAPE      H3R            14.1180339908       -9.5640643443       16.0835061834  MEMB      22              0.0000000000
      2373        22  SAPE      H3S            14.5910296142      -11.1744771509       15.4440383094  MEMB      22              0.0000000000
      2374        22  SAPE      C24            14.5072082207       -9.5592466783       13.9836953505  MEMB      22              0.0000000000
      2375        22  SAPE      H4R            14.5919428220       -8.4524264731       14.0294147065  MEMB      22              0.0000000000
      2376        22  SAPE      H4S            13.4280947238       -9.7386979473       13.7897048977  MEMB      22              0.0000000000
      2377        22  SAPE      C25            15.4612278279      -10.0068402167       12.8820871521  MEMB      22              0.0000000000
      2378        22  SAPE      H5R            16.3670760764       -9.4158770649       12.6815841143  MEMB      22              0.0000000000
      2379        22  SAPE      C26            15.3712282852      -11.1911862562       12.2308193919  MEMB      22              0.0000000000
      2380        22  SAPE      H6R            16.1642788643      -11.4195234187       11.5035414669  MEMB      22              0.0000000000
      2381        22  SAPE      C27            14.3583791373      -12.3674232955       12.3604488014  MEMB      22              0.0000000000
      2382        22  SAPE      H7R            13.7518801350      -12.1009591684       13.2523437708  MEMB      22              0.0000000000
      2383        22  SAPE      H7S            14.8484538359      -13.3240983982       12.6413767668  MEMB      22              0.0000000000
      2384        22  SAPE      C28            13.5372756624      -12.3595774794       11.0931624140  MEMB      22              0.0000000000
      2385        22  SAPE      H8R            12.4635938544      -12.3097206098       11.3270882335  MEMB      22              0.0000000000
      2386        22  SAPE      C29            13.9298370066      -12.6686972904        9.8155925977  MEMB      22              0.0000000000
      2387        22  SAPE      H9R            13.2528288811      -12.3011484345        9.0303735389  MEMB      22              0.0000000000
      2388        22  SAPE      C210           15.3252772586      -13.0169691369        9.3071929092  MEMB      22              0.0000000000
      2389        22  SAPE      H10R           16.0936507697      -13.3273046204       10.0472029270  MEMB      22              0.0000000000
      2390        22  SAPE      H10S           15.7226094936      -12.0428659489        8.9500218067  MEMB      22              0.0000000000
      2391        22  SAPE      C211           15.3262674089      -13.9564161987        8.1195500794  MEMB      22              0.0000000000
      2392        22  SAPE      H11R           15.9660448994      -14.8207238311        8.3511898948  MEMB      22              0.0000000000
      2393        22  SAPE      C212           14.8597292408      -13.7923810823        6.8932290086  MEMB      22              0.0000000000
      2394        22  SAPE      H12R           15.0940263242      -14.5184993167        6.1008546766  MEMB      22              0.0000000000
      2395        22  SAPE      C213           14.1553124508      -12.4956077502        6.4846684914  MEMB      22              0.0000000000
      2396        22  SAPE      H13R           14.8484607619      -11.8725650132        5.8799506250  MEMB      22              0.0000000000
      2397        22  SAPE      H13S           13.7176956342      -11.8945282592        7.3102081794  MEMB      22              0.0000000000
      2398        22  SAPE      C214           12.9620699339      -13.0071147694        5.7022777802  MEMB      22              0.0000000000
      2399        22  SAPE      H14R           12.3173782984      -13.7967827937        6.1155540318  MEMB      22              0.0000000000
      2400        22  SAPE      C215           12.6129760707      -12.5969232190        4.4413209368  MEMB      22              0.0000000000
      2401        22  SAPE      H15R           11.7268734616      -12.9271216909        3.8793679653  MEMB      22              0.0000000000
      2402        22  SAPE      C216           13.3382819386      -11.5505026019        3.6003057141  MEMB      22              0.0000000000
      2403        22  SAPE      H16R           13.6403278527      -10.7716414088        4.3327429221  MEMB      22              0.0000000000
      2404        22  SAPE      H16S           12.6021129446      -11.0505538576        2.9351537451  MEMB      22              0.0000000000
      2405        22  SAPE      C217           14.5493072272      -12.0860055731        2.7456185690  MEMB      22              0.0000000000
      2406        22  SAPE      H17R           14.3049861118      -12.8545395397        1.9814310922  MEMB      22              0.0000000000
      2407        22  SAPE      H17S           15.2105247102      -12.6304882622        3.4531855480  MEMB      22              0.0000000000
      2408        22  SAPE      C218           15.2316449853      -10.9158394302        2.0887511144  MEMB      22              0.0000000000
      2409        22  SAPE      H18R           15.8933391352      -10.5615535835        2.9078743964  MEMB      22              0.0000000000
      2410        22  SAPE      H18S           14.4286001141      -10.2069243826        1.7939983764  MEMB      22              0.0000000000
      2411        22  SAPE      C219           16.1688992830      -11.2246871768        0.8748797037  MEMB      22              0.0000000000
      2412        22  SAPE      H19R           15.5615278249      -11.8921551395        0.2268767007  MEMB      22              0.0000000000
      2413        22  SAPE      H19S           16.9999103324      -11.8430216509        1.2766304581  MEMB      22              0.0000000000
      2414        22  SAPE      C220           16.6521712072      -10.0531056857        0.0427813875  MEMB      22              0.0000000000
      2415        22  SAPE      H20R           17.4663842442      -10.3744559887       -0.6414065873  MEMB      22              0.0000000000
      2416        22  SAPE      H20S           17.0967620099       -9.1543936789        0.5212973044  MEMB      22              0.0000000000
      2417        22  SAPE      H20T           15.7332691731       -9.6388425334       -0.4244724186  MEMB      22              0.0000000000
      2418        22  SAPE      C33            19.4702690521      -12.2596497596       11.6179370519  MEMB      22              0.0000000000
      2419        22  SAPE      H3X            19.4157133956      -11.5435939800       12.4656453699  MEMB      22              0.0000000000
      2420        22  SAPE      H3Y            18.4912024678      -12.2804991788       11.0932328280  MEMB      22              0.0000000000
      2421        22  SAPE      C34            20.6380118677      -11.8171316799       10.7332599708  MEMB      22              0.0000000000
      2422        22  SAPE      H4X            21.5591894169      -11.7738400366       11.3528396179  MEMB      22              0.0000000000
      2423        22  SAPE      H4Y            20.4006069546      -10.8219320326       10.3002037128  MEMB      22              0.0000000000
      2424        22  SAPE      C35            21.1163100070      -12.7518824978        9.5994201901  MEMB      22              0.0000000000
      2425        22  SAPE      H5X            21.3034275438      -13.7596811206       10.0279636024  MEMB      22              0.0000000000
      2426        22  SAPE      H5Y            21.9972317802      -12.4016405433        9.0200852797  MEMB      22              0.0000000000
      2427        22  SAPE      C36            19.9463296139      -13.0380269676        8.6031945085  MEMB      22              0.0000000000
      2428        22  SAPE      H6X            19.6320331429      -12.0555345063        8.1905842142  MEMB      22              0.0000000000
      2429        22  SAPE      H6Y            19.1221847686      -13.5055186735        9.1833309470  MEMB      22              0.0000000000
      2430        22  SAPE      C37            20.4323605055      -13.8601130457        7.3916810127  MEMB      22              0.0000000000
      2431        22  SAPE      H7X            21.0187887026      -14.6876528835        7.8451130441  MEMB      22              0.0000000000
      2432        22  SAPE      H7Y            21.1420089291      -13.1959432511        6.8535369552  MEMB      22              0.0000000000
      2433        22  SAPE      C38            19.4316155019      -14.3636714245        6.3863174179  MEMB      22              0.0000000000
      2434        22  SAPE      H8X            18.6028734865      -14.9697110352        6.8108452129  MEMB      22              0.0000000000
      2435        22  SAPE      H8Y            20.0534656423      -15.1342174418        5.8824501101  MEMB      22              0.0000000000
      2436        22  SAPE      C39            18.9610882655      -13.2814285639        5.3505657426  MEMB      22              0.0000000000
      2437        22  SAPE      H9X            19.8580930263      -12.8587088947        4.8495559225  MEMB      22              0.0000000000
      2438        22  SAPE      H9Y            18.4381066804      -12.5163997446        5.9633805250  MEMB      22              0.0000000000
      2439        22  SAPE      C310           18.0216488347      -13.8653960250        4.2554008245  MEMB      22              0.0000000000
      2440        22  SAPE      H10X           17.6806301271      -13.0505653237        3.5815478224  MEMB      22              0.0000000000
      2441        22  SAPE      H10Y           17.1281691697      -14.4265839058        4.6033709117  MEMB      22              0.0000000000
      2442        22  SAPE      C311           18.5611265876      -14.9748316236        3.3571007958  MEMB      22              0.0000000000
      2443        22  SAPE      H11X           18.9680183187      -15.7975114246        3.9831665405  MEMB      22              0.0000000000
      2444        22  SAPE      H11Y           19.3240039564      -14.4096014039        2.7801652677  MEMB      22              0.0000000000
      2445        22  SAPE      C312           17.5061772350      -15.4372584143        2.3802020380  MEMB      22              0.0000000000
      2446        22  SAPE      H12X           16.9707167643      -14.6001540076        1.8833518949  MEMB      22              0.0000000000
      2447        22  SAPE      H12Y           16.7388072602      -16.0422538600        2.9088273860  MEMB      22              0.0000000000
      2448        22  SAPE      C313           17.9652947878      -16.4756376695        1.2216226267  MEMB      22              0.0000000000
      2449        22  SAPE      H13X           17.1207396119      -16.7196031708        0.5422647511  MEMB      22              0.0000000000
      2450        22  SAPE      H13Y           18.3082932501      -17.4269420326        1.6817246332  MEMB      22              0.0000000000
      2451        22  SAPE      C314           19.1181881065      -15.9394400842        0.2854499230  MEMB      22              0.0000000000
      2452        22  SAPE      H14X           19.4534718847      -16.6629919008       -0.4880983416  MEMB      22              0.0000000000
      2453        22  SAPE      H14Y           20.0349639037      -15.7635877294        0.8878780936  MEMB      22              0.0000000000
      2454        22  SAPE      C315           18.9183389520      -14.6525795433       -0.4392527362  MEMB      22              0.0000000000
      2455        22  SAPE      H15X           19.2564017355      -13.7792120784        0.1584613323  MEMB      22              0.0000000000
      2456        22  SAPE      H15Y           17.8551752136      -14.4721578753       -0.7065585674  MEMB      22              0.0000000000
      2457        22  SAPE      C316           19.7125207758      -14.6767971872       -1.6975974100  MEMB      22              0.0000000000
      2458        22  SAPE      H16X           19.3445241446      -15.5331662792       -2.3021904781  MEMB      22              0.0000000000
      2459        22  SAPE      H16Y           20.7705009727      -14.9189087189       -1.4601517152  MEMB      22              0.0000000000
      2460        22  SAPE      C317           19.6559561757      -13.3957625925       -2.4932337741  MEMB      22              0.0000000000
      2461        22  SAPE      H17X           18.6983568248      -12.8883473608       -2.7378842888  MEMB      22              0.0000000000
      2462        22  SAPE      H17Y           20.1482147107      -13.5739101992       -3.4731635876  MEMB      22              0.0000000000
      2463        22  SAPE      C318           20.4951600271      -12.2157987943       -1.9137652416  MEMB      22              0.0000000000
      2464        22  SAPE      H18X           20.0065106465      -12.0104179053       -0.9373633060  MEMB      22              0.0000000000
      2465        22  SAPE      H18Y           20.4153342841      -11.3336790746       -2.5844459261  MEMB      22              0.0000000000
      2466        22  SAPE      H18Z           21.5334495945      -12.5659471071       -1.7302670084  MEMB      22              0.0000000000
      2467        23  SLPC      N              13.1881613290       15.5158148374       18.8366308575  MEMB      23              0.0000000000
      2468        23  SLPC      C13            12.3548207407       16.6879775488       19.2282847623  MEMB      23              0.0000000000
      2469        23  SLPC      H13A           12.4342645554       16.8034605687       20.2991499421  MEMB      23              0.0000000000
      2470        23  SLPC      H13B           12.7043738179       17.6123400144       18.7926626043  MEMB      23              0.0000000000
      2471        23  SLPC      H13C           11.3361066781       16.4422310154       18.9670753719  MEMB      23              0.0000000000
      2472        23  SLPC      C14            12.5867019924       14.1359858957       19.2099768043  MEMB      23              0.0000000000
      2473        23  SLPC      H14A           13.2277149541       13.3642053033       18.8101557597  MEMB      23              0.0000000000
      2474        23  SLPC      H14B           12.4015198421       14.0416146237       20.2697890608  MEMB      23              0.0000000000
      2475        23  SLPC      H14C           11.6194749512       14.0094602823       18.7464434575  MEMB      23              0.0000000000
      2476        23  SLPC      C15            14.5587453193       15.5545289240       19.5423889107  MEMB      23              0.0000000000
      2477        23  SLPC      H15A           14.4719733608       15.1262507965       20.5300368064  MEMB      23              0.0000000000
      2478        23  SLPC      H15B           15.3284834186       15.0219419094       19.0036363606  MEMB      23              0.0000000000
      2479        23  SLPC      H15C           14.8595398885       16.5867242356       19.6448362488  MEMB      23              0.0000000000
      2480        23  SLPC      C12            13.3273664342       15.4648532091       17.3205736228  MEMB      23              0.0000000000
      2481        23  SLPC      H12A           13.9479632079       14.6256693844       17.0430305445  MEMB      23              0.0000000000
      2482        23  SLPC      H12B           13.7864909527       16.3702691739       16.9520271472  MEMB      23              0.0000000000
      2483        23  SLPC      C11            11.9958787442       15.1604916859       16.4699214999  MEMB      23              0.0000000000
      2484        23  SLPC      H11A           11.4448460015       14.2468218202       16.7795849051  MEMB      23              0.0000000000
      2485        23  SLPC      H11B           12.5142151287       14.9490673643       15.5102610249  MEMB      23              0.0000000000
      2486        23  SLPC      P              11.0288784591       17.3315848939       15.2904581895  MEMB      23              0.0000000000
      2487        23  SLPC      O13             9.8460826565       18.2462197064       15.5408576654  MEMB      23              0.0000000000
      2488        23  SLPC      O14            12.3252685676       18.0352442127       14.9973980771  MEMB      23              0.0000000000
      2489        23  SLPC      O12            11.1848348498       16.3578735051       16.4325979317  MEMB      23              0.0000000000
      2490        23  SLPC      O11            10.7506577037       16.3757131807       14.1309116783  MEMB      23              0.0000000000
      2491        23  SLPC      C1              9.4354100662       15.6960936193       14.0109527950  MEMB      23              0.0000000000
      2492        23  SLPC      HA              9.3696492099       14.9642423670       14.8442535450  MEMB      23              0.0000000000
      2493        23  SLPC      HB              8.5296174895       16.3371486796       14.0648919108  MEMB      23              0.0000000000
      2494        23  SLPC      C2              9.2554098735       14.8969840014       12.5823088206  MEMB      23              0.0000000000
      2495        23  SLPC      HS              8.3328142048       14.2780137177       12.5860156590  MEMB      23              0.0000000000
      2496        23  SLPC      O21            10.3904331167       14.0289168864       12.2852781287  MEMB      23              0.0000000000
      2497        23  SLPC      C21            10.6748113045       13.0511175841       13.1631174707  MEMB      23              0.0000000000
      2498        23  SLPC      O22            10.0346174206       12.7172239275       14.1790690105  MEMB      23              0.0000000000
      2499        23  SLPC      C22            11.8975949447       12.3017439654       12.7219624920  MEMB      23              0.0000000000
      2500        23  SLPC      H2R            11.6766492520       11.2612614400       13.0427419802  MEMB      23              0.0000000000
      2501        23  SLPC      H2S            12.0877504498       12.3631849332       11.6290825047  MEMB      23              0.0000000000
      2502        23  SLPC      C3              9.0957459865       15.9478422329       11.3414855604  MEMB      23              0.0000000000
      2503        23  SLPC      HX              8.1693431350       16.5576375782       11.4066658949  MEMB      23              0.0000000000
      2504        23  SLPC      HY              9.0488161638       15.3117028217       10.4318453559  MEMB      23              0.0000000000
      2505        23  SLPC      O31            10.2537014352       16.7595720582       11.1755459569  MEMB      23              0.0000000000
      2506        23  SLPC      C31            10.1582019989       18.0418896109       11.6656172787  MEMB      23              0.0000000000
      2507        23  SLPC      O32             9.1354928660       18.5259395886       12.1488546344  MEMB      23              0.0000000000
      2508        23  SLPC      C32            11.5073898080       18.7581964430       11.6452208198  MEMB      23              0.0000000000
      2509        23  SLPC      H2X            12.2857405459       18.1481268237       12.1514880719  MEMB      23              0.0000000000
      2510        23  SLPC      H2Y            11.3934983058       19.7737678366       12.0810700407  MEMB      23              0.0000000000
      2511        23  SLPC      C23            13.1270577117       12.6394525834       13.5647116530  MEMB      23              0.0000000000
      2512        23  SLPC      H3R            13.7848965461       11.7633554563       13.3802593490  MEMB      23              0.0000000000
      2513        23  SLPC      H3S            12.8569167103       12.6730939459       14.6418437640  MEMB      23              0.0000000000
      2514        23  SLPC      C24            13.6742057727       13.9566567292       13.0146943651  MEMB      23              0.0000000000
      2515        23  SLPC      H4R            14.3360541011       14.2744357194       13.8485376661  MEMB      23              0.0000000000
      2516        23  SLPC      H4S            12.9267981820       14.7613853371       12.8470199511  MEMB      23              0.0000000000
      2517        23  SLPC      C25            14.6374949051       13.9208132222       11.8006574812  MEMB      23              0.0000000000
      2518        23  SLPC      H5R            14.1106641469       13.4447963958       10.9461526631  MEMB      23              0.0000000000
      2519        23  SLPC      H5S            15.4642746371       13.2116355291       12.0193428720  MEMB      23              0.0000000000
      2520        23  SLPC      C26            14.9443837015       15.3835777669       11.2169558404  MEMB      23              0.0000000000
      2521        23  SLPC      H6R            15.8927025835       15.1309419467       10.6961992357  MEMB      23              0.0000000000
      2522        23  SLPC      H6S            15.3918168696       15.8624015950       12.1140912549  MEMB      23              0.0000000000
      2523        23  SLPC      C27            13.9171227343       16.1700473104       10.4775321334  MEMB      23              0.0000000000
      2524        23  SLPC      H7R            14.0923569674       17.2668316402       10.5035701638  MEMB      23              0.0000000000
      2525        23  SLPC      H7S            12.9032446585       16.0555729311       10.9171544791  MEMB      23              0.0000000000
      2526        23  SLPC      C28            13.8731129946       15.8018226744        8.9552211498  MEMB      23              0.0000000000
      2527        23  SLPC      H8R            14.9256705406       15.5795401937        8.6776710977  MEMB      23              0.0000000000
      2528        23  SLPC      H8S            13.6323390328       16.7199986279        8.3778982850  MEMB      23              0.0000000000
      2529        23  SLPC      C29            12.9921292847       14.6369296461        8.5273614161  MEMB      23              0.0000000000
      2530        23  SLPC      H9R            13.3673881769       13.6320976305        8.7712738810  MEMB      23              0.0000000000
      2531        23  SLPC      C210           11.8073322865       14.7279765020        7.8210112612  MEMB      23              0.0000000000
      2532        23  SLPC      H10R           11.3950585849       13.7675395403        7.4780950177  MEMB      23              0.0000000000
      2533        23  SLPC      C211           11.1760950144       16.0307103583        7.3539206174  MEMB      23              0.0000000000
      2534        23  SLPC      H11R           11.3864474860       16.2646778044        6.2884004722  MEMB      23              0.0000000000
      2535        23  SLPC      H11S           11.6577425083       16.9167397389        7.8200623920  MEMB      23              0.0000000000
      2536        23  SLPC      C212            9.7420050386       16.1973895977        7.6135055640  MEMB      23              0.0000000000
      2537        23  SLPC      H12R            9.6225486625       16.6617801837        8.6034909034  MEMB      23              0.0000000000
      2538        23  SLPC      C213            8.7793230710       15.7605423870        6.8466057244  MEMB      23              0.0000000000
      2539        23  SLPC      H13R            7.7666875014       16.0869295152        7.1259624332  MEMB      23              0.0000000000
      2540        23  SLPC      C214            8.8848734920       15.0230241866        5.5544387267  MEMB      23              0.0000000000
      2541        23  SLPC      H14R            8.5950144071       13.9593563262        5.6919648054  MEMB      23              0.0000000000
      2542        23  SLPC      H14S            9.8675139161       15.1001919691        5.0418149140  MEMB      23              0.0000000000
      2543        23  SLPC      C215            7.8784448407       15.5597335505        4.4422144549  MEMB      23              0.0000000000
      2544        23  SLPC      H15R            6.8387219882       15.3891929497        4.7946535233  MEMB      23              0.0000000000
      2545        23  SLPC      H15S            7.9620360206       14.9050233268        3.5485209505  MEMB      23              0.0000000000
      2546        23  SLPC      C216            8.2156667279       17.0378525030        3.9186544712  MEMB      23              0.0000000000
      2547        23  SLPC      H16R            9.2888407949       16.9559774803        3.6431273510  MEMB      23              0.0000000000
      2548        23  SLPC      H16S            8.0432608898       17.6533974492        4.8273366077  MEMB      23              0.0000000000
      2549        23  SLPC      C217            7.3539204116       17.5215511530        2.7790179544  MEMB      23              0.0000000000
      2550        23  SLPC      H17R            7.4410902012       18.6160657844        2.6094307177  MEMB      23              0.0000000000
      2551        23  SLPC      H17S            6.3109642151       17.2846038881        3.0797147764  MEMB      23              0.0000000000
      2552        23  SLPC      C218            7.6617310666       16.7559646991        1.4998896802  MEMB      23              0.0000000000
      2553        23  SLPC      H18R            7.9354543752       15.6984215040        1.7023717154  MEMB      23              0.0000000000
      2554        23  SLPC      H18S            8.4220108879       17.1788564961        0.8089070757  MEMB      23              0.0000000000
      2555        23  SLPC      H18T            6.7475299339       16.6924689621        0.8717765454  MEMB      23              0.0000000000
      2556        23  SLPC      C33            12.0313487891       18.8877763885       10.2195032939  MEMB      23              0.0000000000
      2557        23  SLPC      H3X            12.0266912354       17.8480024991        9.8281344974  MEMB      23              0.0000000000
      2558        23  SLPC      H3Y            12.9217341367       19.5340704366       10.0651053771  MEMB      23              0.0000000000
      2559        23  SLPC      C34            11.0140173346       19.7400036136        9.2968478580  MEMB      23              0.0000000000
      2560        23  SLPC      H4X            11.1349372127       20.7937465833        9.6274906215  MEMB      23              0.0000000000
      2561        23  SLPC      H4Y             9.9957057604       19.2982245395        9.2500094839  MEMB      23              0.0000000000
      2562        23  SLPC      C35            11.5332370363       19.8145270474        7.8293161079  MEMB      23              0.0000000000
      2563        23  SLPC      H5X            11.6000759048       18.7629601863        7.4770940680  MEMB      23              0.0000000000
      2564        23  SLPC      H5Y            12.5849658061       20.1703833280        7.8687369698  MEMB      23              0.0000000000
      2565        23  SLPC      C36            10.7248311920       20.6849169914        6.8725154208  MEMB      23              0.0000000000
      2566        23  SLPC      H6X            10.8784928887       21.7271448091        7.2253183929  MEMB      23              0.0000000000
      2567        23  SLPC      H6Y             9.6330315265       20.4802402594        6.8524639169  MEMB      23              0.0000000000
      2568        23  SLPC      C37            11.2293873351       20.5771146657        5.4818133794  MEMB      23              0.0000000000
      2569        23  SLPC      H7X            12.3178806048       20.7891267436        5.4143287993  MEMB      23              0.0000000000
      2570        23  SLPC      H7Y            10.9237942500       21.3764629310        4.7733107440  MEMB      23              0.0000000000
      2571        23  SLPC      C38            10.9231944246       19.2694601744        4.7642305277  MEMB      23              0.0000000000
      2572        23  SLPC      H8X             9.8211805014       19.1403445582        4.8209360521  MEMB      23              0.0000000000
      2573        23  SLPC      H8Y            11.4114928203       18.3944765059        5.2441152948  MEMB      23              0.0000000000
      2574        23  SLPC      C39            11.5218387413       19.2071863421        3.3067130993  MEMB      23              0.0000000000
      2575        23  SLPC      H9X            11.6996561221       18.1323004443        3.0891763581  MEMB      23              0.0000000000
      2576        23  SLPC      H9Y            12.4836640587       19.7511788506        3.4219747751  MEMB      23              0.0000000000
      2577        23  SLPC      C310           10.5795365465       19.6665977382        2.2070075301  MEMB      23              0.0000000000
      2578        23  SLPC      H10X           10.8287385181       20.7258882422        1.9831253435  MEMB      23              0.0000000000
      2579        23  SLPC      H10Y            9.5400706762       19.5356483819        2.5767157618  MEMB      23              0.0000000000
      2580        23  SLPC      C311           10.7914485737       19.0338014848        0.8021227686  MEMB      23              0.0000000000
      2581        23  SLPC      H11X           10.0202306556       19.6515876054        0.2943000714  MEMB      23              0.0000000000
      2582        23  SLPC      H11Y           10.3810699871       18.0023374446        0.8467555280  MEMB      23              0.0000000000
      2583        23  SLPC      C312           12.2246997523       18.9528622605        0.2184426165  MEMB      23              0.0000000000
      2584        23  SLPC      H12X           12.7850408292       19.8334547581        0.5990957518  MEMB      23              0.0000000000
      2585        23  SLPC      H12Y           12.1659661354       18.9868236678       -0.8904829212  MEMB      23              0.0000000000
      2586        23  SLPC      C313           13.0223808199       17.6626019129        0.4845984720  MEMB      23              0.0000000000
      2587        23  SLPC      H13X           12.3378176485       16.8202805220        0.2475560720  MEMB      23              0.0000000000
      2588        23  SLPC      H13Y           13.1314725337       17.5789308142        1.5870592104  MEMB      23              0.0000000000
      2589        23  SLPC      C314           14.3629127237       17.5378797836       -0.2306639267  MEMB      23              0.0000000000
      2590        23  SLPC      H14X           14.7095685583       18.5901854892       -0.1481826957  MEMB      23              0.0000000000
      2591        23  SLPC      H14Y           14.2378763318       17.4222085703       -1.3285275421  MEMB      23              0.0000000000
      2592        23  SLPC      C315           15.3992767800       16.4907759904        0.2510985083  MEMB      23              0.0000000000
      2593        23  SLPC      H15X           15.8218656114       16.9068875458        1.1905622725  MEMB      23              0.0000000000
      2594        23  SLPC      H15Y           16.1508228548       16.2867748753       -0.5412912767  MEMB      23              0.0000000000
      2595        23  SLPC      C316           14.7341438218       15.1727808491        0.6376053527  MEMB      23              0.0000000000
      2596        23  SLPC      H16X           14.1818550323       14.7916317392       -0.2478464888  MEMB      23              0.0000000000
      2597        23  SLPC      H16Y           14.0562362042       15.3350753750        1.5027196956  MEMB      23              0.0000000000
      2598        23  SLPC      C317           15.7681777529       14.1238991427        1.0513814404  MEMB      23              0.0000000000
      2599        23  SLPC      H17X           16.4811446394       14.6071581501        1.7531367216  MEMB      23              0.0000000000
      2600        23  SLPC      H17Y           16.5006774832       13.8361137817        0.2671980905  MEMB      23              0.0000000000
      2601        23  SLPC      C318           15.1099054590       12.9718795394        1.7981144054  MEMB      23              0.0000000000
      2602        23  SLPC      H18X           14.7392740333       13.3493315192        2.7750910076  MEMB      23              0.0000000000
      2603        23  SLPC      H18Y           15.9261667244       12.2300242583        1.9311164708  MEMB      23              0.0000000000
      2604        23  SLPC      H18Z           14.3029924260       12.6224579094        1.1190588163  MEMB      23              0.0000000000
      2605        24  OSM       N              20.5633857905        0.9086665718       22.2614446661  MEMB      24              0.0000000000
      2606        24  OSM       C15            21.0396517713        0.3457883216       23.5351634762  MEMB      24              0.0000000000
      2607        24  OSM       H15A           22.0056685170        0.7846664058       23.7366523049  MEMB      24              0.0000000000
      2608        24  OSM       H15B           21.0718292477       -0.7333201835       23.5053395089  MEMB      24              0.0000000000
      2609        24  OSM       H15C           20.2611821713        0.6291067473       24.2280673426  MEMB      24              0.0000000000
      2610        24  OSM       C14            21.4252142130        0.3468709278       21.1329922184  MEMB      24              0.0000000000
      2611        24  OSM       H14A           21.3271762488       -0.7276044248       21.0851227779  MEMB      24              0.0000000000
      2612        24  OSM       H14B           22.4474405340        0.5996617049       21.3728881862  MEMB      24              0.0000000000
      2613        24  OSM       H14C           21.1451726980        0.7764350196       20.1824916042  MEMB      24              0.0000000000
      2614        24  OSM       C13            19.0877905696        0.4649483103       21.9627776140  MEMB      24              0.0000000000
      2615        24  OSM       H13A           18.4496480114        0.7953161916       22.7690227878  MEMB      24              0.0000000000
      2616        24  OSM       H13B           18.9457608008       -0.5904828642       21.7830758953  MEMB      24              0.0000000000
      2617        24  OSM       H13C           18.7862069669        1.0192395077       21.0863026053  MEMB      24              0.0000000000
      2618        24  OSM       C12            20.7147623098        2.4957562312       22.2899752967  MEMB      24              0.0000000000
      2619        24  OSM       H12A           21.7006755927        2.7827956587       22.6246144599  MEMB      24              0.0000000000
      2620        24  OSM       H12B           20.1694061123        2.7058447989       23.1981874752  MEMB      24              0.0000000000
      2621        24  OSM       C11            20.2368230958        3.2224733392       21.0502299745  MEMB      24              0.0000000000
      2622        24  OSM       H11A           20.1493452101        4.3019084081       21.2981987353  MEMB      24              0.0000000000
      2623        24  OSM       H11B           19.1745885055        2.9546573897       20.8651540125  MEMB      24              0.0000000000
      2624        24  OSM       P              22.3990391541        3.7553085051       19.8001122472  MEMB      24              0.0000000000
      2625        24  OSM       O13            22.3345573551        5.2159119076       20.0839822574  MEMB      24              0.0000000000
      2626        24  OSM       O14            23.3508932097        3.0383106386       20.6364094510  MEMB      24              0.0000000000
      2627        24  OSM       O11            22.8382964905        3.4622157913       18.3380984483  MEMB      24              0.0000000000
      2628        24  OSM       O12            21.0374560355        2.9559013521       19.9088143487  MEMB      24              0.0000000000
      2629        24  OSM       C1S            22.1815759390        2.5230602618       17.4665369959  MEMB      24              0.0000000000
      2630        24  OSM       H1S            21.0899793500        2.7262209474       17.5047945556  MEMB      24              0.0000000000
      2631        24  OSM       H1T            22.4071330090        1.4554767663       17.6756073109  MEMB      24              0.0000000000
      2632        24  OSM       NF             21.8733794140        2.1138803995       15.0317168274  MEMB      24              0.0000000000
      2633        24  OSM       HNF            22.3485792824        1.4910799937       14.4150213555  MEMB      24              0.0000000000
      2634        24  OSM       C2S            22.6180835104        2.8339461142       15.9941442582  MEMB      24              0.0000000000
      2635        24  OSM       H2S            22.6126539121        3.9253501783       15.7864697398  MEMB      24              0.0000000000
      2636        24  OSM       C3S            24.1195185316        2.3870132010       15.8255036363  MEMB      24              0.0000000000
      2637        24  OSM       H3S            23.9909622204        1.3676457484       15.4027932522  MEMB      24              0.0000000000
      2638        24  OSM       O3             24.8615152352        2.4592758735       17.0275483649  MEMB      24              0.0000000000
      2639        24  OSM       HO3            24.2622257857        2.5849152588       17.7669176126  MEMB      24              0.0000000000
      2640        24  OSM       C4S            24.6585068063        3.2668100585       14.6998713416  MEMB      24              0.0000000000
      2641        24  OSM       H4S            24.4098664119        2.9096174370       13.6896280700  MEMB      24              0.0000000000
      2642        24  OSM       C5S            25.4905555040        4.3238431286       14.8591322077  MEMB      24              0.0000000000
      2643        24  OSM       H5S            25.7090580444        4.8218444558       15.8152973709  MEMB      24              0.0000000000
      2644        24  OSM       C6S            25.9864607542        5.1602303585       13.7254860090  MEMB      24              0.0000000000
      2645        24  OSM       H6S            27.0702422281        4.9505777959       13.5998503271  MEMB      24              0.0000000000
      2646        24  OSM       H6T            25.8063573345        6.2200086236       14.0061160960  MEMB      24              0.0000000000
      2647        24  OSM       C7S            25.5638646393        4.9488400048       12.1621717794  MEMB      24              0.0000000000
      2648        24  OSM       H7S            25.5674101721        3.8758098234       11.8742231029  MEMB      24              0.0000000000
      2649        24  OSM       H7T            26.3603152848        5.3533762398       11.5016126950  MEMB      24              0.0000000000
      2650        24  OSM       C8S            24.1914158040        5.5135300568       11.8934873133  MEMB      24              0.0000000000
      2651        24  OSM       H8S            24.2340996117        6.6072309790       12.0840599887  MEMB      24              0.0000000000
      2652        24  OSM       H8T            23.4878583321        5.2432208552       12.7097357882  MEMB      24              0.0000000000
      2653        24  OSM       C9S            23.5029116859        5.0274673775       10.5681557425  MEMB      24              0.0000000000
      2654        24  OSM       H9S            22.4238519750        5.0207783504       10.8325539116  MEMB      24              0.0000000000
      2655        24  OSM       H9T            23.9082101459        4.0061847780       10.4037308412  MEMB      24              0.0000000000
      2656        24  OSM       C10S           23.8561180719        5.8904678419        9.3586368685  MEMB      24              0.0000000000
      2657        24  OSM       H10S           24.9211761006        6.2022035521        9.4114933986  MEMB      24              0.0000000000
      2658        24  OSM       H10T           23.1977613615        6.7853273927        9.3693154691  MEMB      24              0.0000000000
      2659        24  OSM       C11S           23.5347340059        5.1779649008        8.0245467229  MEMB      24              0.0000000000
      2660        24  OSM       H11S           24.1954169360        4.2992659099        7.8642123764  MEMB      24              0.0000000000
      2661        24  OSM       H11T           23.8660279749        5.9178772544        7.2648793737  MEMB      24              0.0000000000
      2662        24  OSM       C12S           22.0490057018        4.8909510266        7.7518780879  MEMB      24              0.0000000000
      2663        24  OSM       H12S           21.4591336657        5.8324040423        7.7580559053  MEMB      24              0.0000000000
      2664        24  OSM       H12T           21.5278851295        4.3126334915        8.5445339306  MEMB      24              0.0000000000
      2665        24  OSM       C13S           21.9334417404        4.2226751927        6.3711828873  MEMB      24              0.0000000000
      2666        24  OSM       H13S           22.4870464280        3.2677398391        6.2449232045  MEMB      24              0.0000000000
      2667        24  OSM       H13T           22.4560917781        4.8969457186        5.6594826107  MEMB      24              0.0000000000
      2668        24  OSM       C14S           20.4347812069        4.1754868335        5.9856178839  MEMB      24              0.0000000000
      2669        24  OSM       H14S           19.9779121804        5.1649308328        5.7697654528  MEMB      24              0.0000000000
      2670        24  OSM       H14T           19.8107958847        3.8030447706        6.8260048965  MEMB      24              0.0000000000
      2671        24  OSM       C15S           20.0898040485        3.2081197106        4.8010715398  MEMB      24              0.0000000000
      2672        24  OSM       H15S           20.2509706952        2.1556532027        5.1183416937  MEMB      24              0.0000000000
      2673        24  OSM       H15T           20.6444925601        3.3588036534        3.8503155374  MEMB      24              0.0000000000
      2674        24  OSM       C16S           18.6306271664        3.4383454947        4.2924361087  MEMB      24              0.0000000000
      2675        24  OSM       H16S           18.3928238485        4.4910186247        4.0285228571  MEMB      24              0.0000000000
      2676        24  OSM       H16T           18.0678437794        3.1816794101        5.2153220505  MEMB      24              0.0000000000
      2677        24  OSM       C17S           18.1140642159        2.5951957897        3.2431958073  MEMB      24              0.0000000000
      2678        24  OSM       H17S           17.0188389885        2.4445214015        3.3531960936  MEMB      24              0.0000000000
      2679        24  OSM       H17T           18.5443910108        1.5889716200        3.4346450374  MEMB      24              0.0000000000
      2680        24  OSM       C18S           18.3933780880        3.0879482213        1.8539142363  MEMB      24              0.0000000000
      2681        24  OSM       H18S           19.4704400675        3.2573261086        1.6404437814  MEMB      24              0.0000000000
      2682        24  OSM       H18T           17.8921007818        4.0659514420        1.6909653098  MEMB      24              0.0000000000
      2683        24  OSM       H18U           18.0294751400        2.3543016955        1.1031414150  MEMB      24              0.0000000000
      2684        24  OSM       C1F            20.5770413533        2.3751055048       14.6751507465  MEMB      24              0.0000000000
      2685        24  OSM       OF             19.8151335943        3.0298911999       15.3965952753  MEMB      24              0.0000000000
      2686        24  OSM       C2F            19.9892290935        1.6169099022       13.4803568059  MEMB      24              0.0000000000
      2687        24  OSM       H2F            18.9985200866        1.1902614893       13.7464167320  MEMB      24              0.0000000000
      2688        24  OSM       H2G            20.6428717525        0.7517947176       13.2381832533  MEMB      24              0.0000000000
      2689        24  OSM       C3F            19.9527448546        2.5144330529       12.2523528118  MEMB      24              0.0000000000
      2690        24  OSM       H3F            20.9449080879        3.0072178527       12.1681136936  MEMB      24              0.0000000000
      2691        24  OSM       H3G            19.2924052473        3.4034789656       12.3410642694  MEMB      24              0.0000000000
      2692        24  OSM       C4F            19.5561952546        1.9353646808       10.8997157853  MEMB      24              0.0000000000
      2693        24  OSM       H4F            19.6126435035        2.7260097665       10.1212462600  MEMB      24              0.0000000000
      2694        24  OSM       H4G            18.5208733049        1.5349671520       10.9456656777  MEMB      24              0.0000000000
      2695        24  OSM       C5F            20.3638347795        0.7926857112       10.3723048311  MEMB      24              0.0000000000
      2696        24  OSM       H5F            20.0220928476        0.5387114598        9.3461326985  MEMB      24              0.0000000000
      2697        24  OSM       H5G            20.0116174022       -0.0465979337       11.0093820777  MEMB      24              0.0000000000
      2698        24  OSM       C6F            21.8189756910        0.8549310482       10.4883541806  MEMB      24              0.0000000000
      2699        24  OSM       H6F            22.1117419900        0.8900314653       11.5595112064  MEMB      24              0.0000000000
      2700        24  OSM       H6G            22.1668873233        1.8188649769       10.0592741988  MEMB      24              0.0000000000
      2701        24  OSM       C7F            22.4961112460       -0.4052253456        9.8427814354  MEMB      24              0.0000000000
      2702        24  OSM       H7F            21.9711832503       -1.3484361895       10.1056975186  MEMB      24              0.0000000000
      2703        24  OSM       H7G            23.5434356973       -0.5713960258       10.1741726702  MEMB      24              0.0000000000
      2704        24  OSM       C8F            22.3488905317       -0.6453241121        8.2948463203  MEMB      24              0.0000000000
      2705        24  OSM       H8F            21.2900309169       -0.7744440059        7.9842567692  MEMB      24              0.0000000000
      2706        24  OSM       H8G            22.6775537376       -1.6662251889        8.0049096574  MEMB      24              0.0000000000
      2707        24  OSM       C9F            23.0636350335        0.4243906455        7.4272266980  MEMB      24              0.0000000000
      2708        24  OSM       H9F            22.7770424667        1.4761145721        7.5746765023  MEMB      24              0.0000000000
      2709        24  OSM       C10F           24.0926510856        0.1671243331        6.5956100447  MEMB      24              0.0000000000
      2710        24  OSM       H10F           24.4766900645        1.0503094981        6.0641045645  MEMB      24              0.0000000000
      2711        24  OSM       C11F           24.7191870615       -1.1396108750        6.2380668334  MEMB      24              0.0000000000
      2712        24  OSM       H11F           24.2229291365       -2.0173869731        6.7044982111  MEMB      24              0.0000000000
      2713        24  OSM       H11G           25.7739830380       -1.0884094568        6.5831821383  MEMB      24              0.0000000000
      2714        24  OSM       C12F           24.7386722679       -1.3527013211        4.7436527851  MEMB      24              0.0000000000
      2715        24  OSM       H12F           25.3409475035       -2.2749280330        4.5984524970  MEMB      24              0.0000000000
      2716        24  OSM       H12G           25.3545584290       -0.5471379502        4.2897005369  MEMB      24              0.0000000000
      2717        24  OSM       C13F           23.4191434822       -1.3980596703        3.8927267363  MEMB      24              0.0000000000
      2718        24  OSM       H13F           22.8885378039       -0.4304019681        4.0208560371  MEMB      24              0.0000000000
      2719        24  OSM       H13G           22.6824314960       -2.1895406545        4.1479412507  MEMB      24              0.0000000000
      2720        24  OSM       C14F           23.7162279831       -1.5824637239        2.3560003612  MEMB      24              0.0000000000
      2721        24  OSM       H14F           23.7470990644       -2.6805258587        2.1897830188  MEMB      24              0.0000000000
      2722        24  OSM       H14G           24.7744342945       -1.3249176122        2.1364770912  MEMB      24              0.0000000000
      2723        24  OSM       C15F           22.6513542920       -0.9267134447        1.5113156569  MEMB      24              0.0000000000
      2724        24  OSM       H15F           22.8935242362       -1.1832858866        0.4578221525  MEMB      24              0.0000000000
      2725        24  OSM       H15G           22.6852850610        0.1806354025        1.5946701571  MEMB      24              0.0000000000
      2726        24  OSM       C16F           21.1719608123       -1.3275617386        1.7299985249  MEMB      24              0.0000000000
      2727        24  OSM       H16F           20.8634431350       -1.1549997143        2.7832598718  MEMB      24              0.0000000000
      2728        24  OSM       H16G           20.9383583539       -2.3496449392        1.3624447509  MEMB      24              0.0000000000
      2729        24  OSM       C17F           20.2496710665       -0.4350836668        0.8425706508  MEMB      24              0.0000000000
      2730        24  OSM       H17F           20.3505262226       -0.6613145748       -0.2404666070  MEMB      24              0.0000000000
      2731        24  OSM       H17G           20.4083866073        0.6410660790        1.0684729067  MEMB      24              0.0000000000
      2732        24  OSM       C18F           18.7333632510       -0.7633043580        1.0172266874  MEMB      24              0.0000000000
      2733        24  OSM       H18F           18.5320755785       -1.6632344471        0.3976057076  MEMB      24              0.0000000000
      2734        24  OSM       H18G           18.0868319188        0.0821406280        0.6985714327  MEMB      24              0.0000000000
      2735        24  OSM       H18H           18.5414381097       -0.9620578391        2.0933221991  MEMB      24              0.0000000000
      2736        25  CHL1      C3              4.4957079897      -21.2778981392       17.2909200000  MEMB      25              0.0000000000
      2737        25  CHL1      H3              3.4784324288      -21.6131854147       16.9958800000  MEMB      25              0.0000000000
      2738        25  CHL1      O3              4.6289275303      -21.2558262608       18.7090800000  MEMB      25              0.0000000000
      2739        25  CHL1      H3'             4.2515228503      -20.4077767521       18.9539800000  MEMB      25              0.0000000000
      2740        25  CHL1      C4              5.3498013816      -22.4541369163       16.8292400000  MEMB      25              0.0000000000
      2741        25  CHL1      H4A             6.3632710209      -22.5160801545       17.2801900000  MEMB      25              0.0000000000
      2742        25  CHL1      H4B             4.8985450130      -23.3743888721       17.2579900000  MEMB      25              0.0000000000
      2743        25  CHL1      C5              5.4475129897      -22.5024893408       15.3585700000  MEMB      25              0.0000000000
      2744        25  CHL1      C6              4.8560681789      -23.4813529575       14.7189600000  MEMB      25              0.0000000000
      2745        25  CHL1      H6              4.4439934744      -24.2820710128       15.3506500000  MEMB      25              0.0000000000
      2746        25  CHL1      C7              4.7534587810      -23.6462171160       13.2181800000  MEMB      25              0.0000000000
      2747        25  CHL1      H7A             4.9211156455      -24.6981490098       12.9025200000  MEMB      25              0.0000000000
      2748        25  CHL1      H7B             3.7276527396      -23.3967182442       12.8720400000  MEMB      25              0.0000000000
      2749        25  CHL1      C8              5.7715638683      -22.6969480998       12.5197600000  MEMB      25              0.0000000000
      2750        25  CHL1      H8              6.7496210468      -23.1147916754       12.8409000000  MEMB      25              0.0000000000
      2751        25  CHL1      C14             5.5734958423      -22.7197292951       10.9713300000  MEMB      25              0.0000000000
      2752        25  CHL1      H14             4.4974995055      -22.4531731125       10.8971200000  MEMB      25              0.0000000000
      2753        25  CHL1      C15             5.6768443005      -24.1007031562       10.2980000000  MEMB      25              0.0000000000
      2754        25  CHL1      H15A            6.7036016275      -24.5151494768       10.3892600000  MEMB      25              0.0000000000
      2755        25  CHL1      H15B            4.7680378479      -24.6641563991       10.5995000000  MEMB      25              0.0000000000
      2756        25  CHL1      C16             5.6184269765      -23.5907675308        8.8118200000  MEMB      25              0.0000000000
      2757        25  CHL1      H16A            6.4436925186      -24.0799385841        8.2514900000  MEMB      25              0.0000000000
      2758        25  CHL1      H16B            4.6913509964      -23.8131696026        8.2413900000  MEMB      25              0.0000000000
      2759        25  CHL1      C17             5.7929039057      -22.0806751066        8.7295900000  MEMB      25              0.0000000000
      2760        25  CHL1      H17             4.8534549386      -21.4884635566        8.7621200000  MEMB      25              0.0000000000
      2761        25  CHL1      C13             6.4255038450      -21.8163444481       10.1474700000  MEMB      25              0.0000000000
      2762        25  CHL1      C18             7.8993210486      -22.2703069828       10.1687800000  MEMB      25              0.0000000000
      2763        25  CHL1      H18A            7.9994173783      -23.1460990596        9.4925600000  MEMB      25              0.0000000000
      2764        25  CHL1      H18B            8.5228333637      -21.3776374033        9.9481200000  MEMB      25              0.0000000000
      2765        25  CHL1      H18C            8.1453528348      -22.6121193616       11.1968700000  MEMB      25              0.0000000000
      2766        25  CHL1      C12             6.3184457994      -20.3576243622       10.6641700000  MEMB      25              0.0000000000
      2767        25  CHL1      H12A            7.1014183824      -19.7213000713       10.1990200000  MEMB      25              0.0000000000
      2768        25  CHL1      H12B            5.2639181973      -20.0205577135       10.5710700000  MEMB      25              0.0000000000
      2769        25  CHL1      C11             6.6519743713      -20.3537456305       12.1897300000  MEMB      25              0.0000000000
      2770        25  CHL1      H11A            7.7136000141      -20.6759695431       12.2484100000  MEMB      25              0.0000000000
      2771        25  CHL1      H11B            6.5392310258      -19.3263211790       12.5971800000  MEMB      25              0.0000000000
      2772        25  CHL1      C9              5.7423745263      -21.2781947578       13.0769900000  MEMB      25              0.0000000000
      2773        25  CHL1      H9              4.6914862130      -20.9315695696       12.9779900000  MEMB      25              0.0000000000
      2774        25  CHL1      C10             5.9555357957      -21.2313171062       14.6708400000  MEMB      25              0.0000000000
      2775        25  CHL1      C19             7.4888762730      -21.1606337342       15.0100100000  MEMB      25              0.0000000000
      2776        25  CHL1      H19A            7.9072935355      -22.0815418771       14.5504800000  MEMB      25              0.0000000000
      2777        25  CHL1      H19B            7.9040619918      -20.3061103438       14.4340500000  MEMB      25              0.0000000000
      2778        25  CHL1      H19C            7.7345573833      -21.0521024473       16.0880600000  MEMB      25              0.0000000000
      2779        25  CHL1      C1              5.2605518080      -19.9256136309       15.2117200000  MEMB      25              0.0000000000
      2780        25  CHL1      H1A             5.7644029549      -19.0366499683       14.7756000000  MEMB      25              0.0000000000
      2781        25  CHL1      H1B             4.3229598125      -20.0577512938       14.6305400000  MEMB      25              0.0000000000
      2782        25  CHL1      C2              5.0162620116      -19.9083148568       16.7142000000  MEMB      25              0.0000000000
      2783        25  CHL1      H2A             4.2420028110      -19.1411295843       16.9293200000  MEMB      25              0.0000000000
      2784        25  CHL1      H2B             5.9925443860      -19.7821602274       17.2292500000  MEMB      25              0.0000000000
      2785        25  CHL1      C20             6.6927608602      -21.7626207549        7.4851300000  MEMB      25              0.0000000000
      2786        25  CHL1      H20             7.5692762360      -22.4452645397        7.4780200000  MEMB      25              0.0000000000
      2787        25  CHL1      C21             7.2775926358      -20.3594141044        7.5238200000  MEMB      25              0.0000000000
      2788        25  CHL1      H21A            6.4045152090      -19.6885021527        7.6719100000  MEMB      25              0.0000000000
      2789        25  CHL1      H21B            7.7329430839      -20.0430191964        6.5610800000  MEMB      25              0.0000000000
      2790        25  CHL1      H21C            8.0457589697      -20.1602616104        8.3013800000  MEMB      25              0.0000000000
      2791        25  CHL1      C22             5.8401872294      -22.0672327778        6.1896000000  MEMB      25              0.0000000000
      2792        25  CHL1      H22A            5.7534699811      -23.1719005258        6.1089900000  MEMB      25              0.0000000000
      2793        25  CHL1      H22B            4.8633645835      -21.5975243353        6.4335800000  MEMB      25              0.0000000000
      2794        25  CHL1      C23             6.4512244812      -21.6272604380        4.8488000000  MEMB      25              0.0000000000
      2795        25  CHL1      H23A            6.4369740513      -20.5189206920        4.7734100000  MEMB      25              0.0000000000
      2796        25  CHL1      H23B            7.4774185951      -22.0369501956        4.9646600000  MEMB      25              0.0000000000
      2797        25  CHL1      C24             5.8337131201      -22.1812326152        3.6439600000  MEMB      25              0.0000000000
      2798        25  CHL1      H24A            5.8138392776      -23.2913284473        3.6038900000  MEMB      25              0.0000000000
      2799        25  CHL1      H24B            4.7731261724      -21.8525111945        3.6061200000  MEMB      25              0.0000000000
      2800        25  CHL1      C25             6.6393330566      -21.7317979387        2.3932300000  MEMB      25              0.0000000000
      2801        25  CHL1      H25             7.7034517933      -22.0480583134        2.4374300000  MEMB      25              0.0000000000
      2802        25  CHL1      C26             6.1777494152      -22.4505873562        1.1576500000  MEMB      25              0.0000000000
      2803        25  CHL1      H26A            6.5479569646      -21.9480505174        0.2385600000  MEMB      25              0.0000000000
      2804        25  CHL1      H26B            6.7684238541      -23.3907557124        1.1187000000  MEMB      25              0.0000000000
      2805        25  CHL1      H26C            5.0884878206      -22.6327661295        1.2785900000  MEMB      25              0.0000000000
      2806        25  CHL1      C27             6.5544508624      -20.2572606275        2.1535700000  MEMB      25              0.0000000000
      2807        25  CHL1      H27A            6.8116397733      -20.0340785416        1.0960400000  MEMB      25              0.0000000000
      2808        25  CHL1      H27B            5.5126712312      -19.8937722275        2.2835800000  MEMB      25              0.0000000000
      2809        25  CHL1      H27C            7.1150997985      -19.6183733243        2.8689900000  MEMB      25              0.0000000000
      2810        26  SAPE      N             -19.5100346618       -6.4771306100       17.7486824713  MEMB      26              0.0000000000
      2811        26  SAPE      HN1           -20.5440697693       -6.5722422002       17.8063460306  MEMB      26              0.0000000000
      2812        26  SAPE      HN2           -19.2256738305       -5.5175301187       18.0313584431  MEMB      26              0.0000000000
      2813        26  SAPE      HN3           -19.1227770634       -6.7069065756       16.8112206085  MEMB      26              0.0000000000
      2814        26  SAPE      C12           -19.0302289702       -7.4552896246       18.7831211727  MEMB      26              0.0000000000
      2815        26  SAPE      H12A          -18.0031793761       -7.1021144758       19.0171243431  MEMB      26              0.0000000000
      2816        26  SAPE      H12B          -18.9856029701       -8.3377436514       18.1096195074  MEMB      26              0.0000000000
      2817        26  SAPE      C11           -19.9169427383       -7.6964140131       20.0434335395  MEMB      26              0.0000000000
      2818        26  SAPE      H11A          -21.0158508005       -7.6662280772       19.8827765710  MEMB      26              0.0000000000
      2819        26  SAPE      H11B          -19.6173603473       -6.8261211539       20.6656568352  MEMB      26              0.0000000000
      2820        26  SAPE      P             -20.1623480846      -10.2609390495       20.7838656424  MEMB      26              0.0000000000
      2821        26  SAPE      O13           -19.2667319799      -11.2726749677       21.4343179147  MEMB      26              0.0000000000
      2822        26  SAPE      O14           -21.6250094051      -10.1520958585       21.1508375013  MEMB      26              0.0000000000
      2823        26  SAPE      O12           -19.4584964367       -8.8165136808       20.8687645845  MEMB      26              0.0000000000
      2824        26  SAPE      O11           -20.0645069479      -10.4973023373       19.1869771904  MEMB      26              0.0000000000
      2825        26  SAPE      C1            -20.8429319095      -11.6027230158       18.7646165085  MEMB      26              0.0000000000
      2826        26  SAPE      HA            -20.2296555931      -12.5217705621       18.6481488132  MEMB      26              0.0000000000
      2827        26  SAPE      HB            -21.7989793606      -11.8568432397       19.2703014403  MEMB      26              0.0000000000
      2828        26  SAPE      C2            -21.2401602183      -11.3162501418       17.2678220371  MEMB      26              0.0000000000
      2829        26  SAPE      HS            -20.2969451410      -11.1686682757       16.6995915538  MEMB      26              0.0000000000
      2830        26  SAPE      O21           -22.2092873977      -10.2604119379       17.0897914348  MEMB      26              0.0000000000
      2831        26  SAPE      C21           -21.9543961967       -9.2878242909       16.2403280568  MEMB      26              0.0000000000
      2832        26  SAPE      O22           -20.8969980692       -9.0790135790       15.6691346832  MEMB      26              0.0000000000
      2833        26  SAPE      C22           -23.1947583676       -8.3855586966       16.2036187963  MEMB      26              0.0000000000
      2834        26  SAPE      H2R           -24.1528566851       -8.9443691423       16.2676490406  MEMB      26              0.0000000000
      2835        26  SAPE      H2S           -23.1982678525       -7.7947953355       17.1445264205  MEMB      26              0.0000000000
      2836        26  SAPE      C3            -21.7405917503      -12.6636664433       16.7000952961  MEMB      26              0.0000000000
      2837        26  SAPE      HX            -22.7981133499      -12.9596002332       16.8685957086  MEMB      26              0.0000000000
      2838        26  SAPE      HY            -21.0686404127      -13.5101098500       16.9576529314  MEMB      26              0.0000000000
      2839        26  SAPE      O31           -21.8619713951      -12.5718570871       15.2427558337  MEMB      26              0.0000000000
      2840        26  SAPE      C31           -20.7793230010      -12.7395607971       14.4972170798  MEMB      26              0.0000000000
      2841        26  SAPE      O32           -19.6433753130      -12.9541472451       14.9007596382  MEMB      26              0.0000000000
      2842        26  SAPE      C32           -21.1537083098      -12.7050366185       13.0119138840  MEMB      26              0.0000000000
      2843        26  SAPE      H2X           -21.7440837287      -11.7808086449       12.8342049807  MEMB      26              0.0000000000
      2844        26  SAPE      H2Y           -21.7157469296      -13.6416964044       12.8091773075  MEMB      26              0.0000000000
      2845        26  SAPE      C23           -23.3022106867       -7.3959324657       15.0422185525  MEMB      26              0.0000000000
      2846        26  SAPE      H3R           -22.3015347614       -6.9924316406       14.7773494614  MEMB      26              0.0000000000
      2847        26  SAPE      H3S           -23.8765092610       -6.5665730101       15.5076915508  MEMB      26              0.0000000000
      2848        26  SAPE      C24           -24.1156599200       -7.7996525149       13.7994388577  MEMB      26              0.0000000000
      2849        26  SAPE      H4R           -24.3335778589       -6.8447468976       13.2750456924  MEMB      26              0.0000000000
      2850        26  SAPE      H4S           -25.1176173682       -8.1336271807       14.1442048739  MEMB      26              0.0000000000
      2851        26  SAPE      C25           -23.5096463386       -8.9547671105       13.0594417065  MEMB      26              0.0000000000
      2852        26  SAPE      H5R           -23.6353150656       -9.9317759221       13.5489937830  MEMB      26              0.0000000000
      2853        26  SAPE      C26           -22.9134732302       -8.8587523830       11.8545634207  MEMB      26              0.0000000000
      2854        26  SAPE      H6R           -22.4916042592       -9.7445629439       11.3572033713  MEMB      26              0.0000000000
      2855        26  SAPE      C27           -22.7938073114       -7.6473630650       11.0647731177  MEMB      26              0.0000000000
      2856        26  SAPE      H7R           -23.8234721959       -7.3158942350       10.8113168753  MEMB      26              0.0000000000
      2857        26  SAPE      H7S           -22.3481511966       -7.9643578499       10.0977017359  MEMB      26              0.0000000000
      2858        26  SAPE      C28           -21.9500686049       -6.3783474143       11.4667697174  MEMB      26              0.0000000000
      2859        26  SAPE      H8R           -22.6021530489       -5.4925319026       11.4775553617  MEMB      26              0.0000000000
      2860        26  SAPE      C29           -20.5933751082       -6.1972106707       11.7399780857  MEMB      26              0.0000000000
      2861        26  SAPE      H9R           -20.2496002938       -5.1567069657       11.8357419299  MEMB      26              0.0000000000
      2862        26  SAPE      C210          -19.4857689363       -7.2018249444       11.7047235003  MEMB      26              0.0000000000
      2863        26  SAPE      H10R          -19.8858672871       -8.2382183876       11.6932759241  MEMB      26              0.0000000000
      2864        26  SAPE      H10S          -19.0017855292       -7.2392752621       12.7040622891  MEMB      26              0.0000000000
      2865        26  SAPE      C211          -18.4240044569       -6.9073019539       10.7022953259  MEMB      26              0.0000000000
      2866        26  SAPE      H11R          -17.8950889145       -5.9576566859       10.8708851140  MEMB      26              0.0000000000
      2867        26  SAPE      C212          -18.1117064188       -7.4689665102        9.5643495962  MEMB      26              0.0000000000
      2868        26  SAPE      H12R          -17.3136768146       -7.1377615805        8.8835761659  MEMB      26              0.0000000000
      2869        26  SAPE      C213          -18.7509642578       -8.6793338062        8.9270322533  MEMB      26              0.0000000000
      2870        26  SAPE      H13R          -19.4512191190       -9.1120940435        9.6731435798  MEMB      26              0.0000000000
      2871        26  SAPE      H13S          -17.9718165224       -9.3966267346        8.5912635051  MEMB      26              0.0000000000
      2872        26  SAPE      C214          -19.5330112087       -8.3007195816        7.5975464766  MEMB      26              0.0000000000
      2873        26  SAPE      H14R          -20.5578185944       -7.9387626945        7.7671259737  MEMB      26              0.0000000000
      2874        26  SAPE      C215          -19.1039278236       -8.2784104256        6.3483040638  MEMB      26              0.0000000000
      2875        26  SAPE      H15R          -19.6639187445       -7.7232556193        5.5813533303  MEMB      26              0.0000000000
      2876        26  SAPE      C216          -17.6864492067       -8.6091041674        5.9311517290  MEMB      26              0.0000000000
      2877        26  SAPE      H16R          -17.0321683696       -8.5056825888        6.8230832834  MEMB      26              0.0000000000
      2878        26  SAPE      H16S          -17.3657824878       -7.8889620017        5.1482803242  MEMB      26              0.0000000000
      2879        26  SAPE      C217          -17.5547672649      -10.0463612402        5.4329536585  MEMB      26              0.0000000000
      2880        26  SAPE      H17R          -17.8786546948      -10.8011958025        6.1810467376  MEMB      26              0.0000000000
      2881        26  SAPE      H17S          -16.5705468974      -10.3820325721        5.0418573237  MEMB      26              0.0000000000
      2882        26  SAPE      C218          -18.4504007768      -10.2117499350        4.1605779839  MEMB      26              0.0000000000
      2883        26  SAPE      H18R          -18.3304266034       -9.2968870753        3.5417468790  MEMB      26              0.0000000000
      2884        26  SAPE      H18S          -19.5165764541      -10.2083904740        4.4729545199  MEMB      26              0.0000000000
      2885        26  SAPE      C219          -18.0795955003      -11.4861708615        3.3129452430  MEMB      26              0.0000000000
      2886        26  SAPE      H19R          -18.3732462430      -12.3103289726        3.9976727343  MEMB      26              0.0000000000
      2887        26  SAPE      H19S          -16.9837202686      -11.5526568747        3.1427735549  MEMB      26              0.0000000000
      2888        26  SAPE      C220          -18.8108045430      -11.4065491636        1.9422533603  MEMB      26              0.0000000000
      2889        26  SAPE      H20R          -18.5240926741      -10.5589801647        1.2836601338  MEMB      26              0.0000000000
      2890        26  SAPE      H20S          -19.8706886993      -11.3501452850        2.2705587322  MEMB      26              0.0000000000
      2891        26  SAPE      H20T          -18.7230595332      -12.2561336644        1.2317398214  MEMB      26              0.0000000000
      2892        26  SAPE      C33           -19.8482594577      -12.7202488491       12.2267795853  MEMB      26              0.0000000000
      2893        26  SAPE      H3X           -19.0042456908      -13.3933885999       12.4891625555  MEMB      26              0.0000000000
      2894        26  SAPE      H3Y           -19.4407828208      -11.6885930347       12.2897885601  MEMB      26              0.0000000000
      2895        26  SAPE      C34           -19.8149862850      -12.9850371466       10.7305464138  MEMB      26              0.0000000000
      2896        26  SAPE      H4X           -20.1331181658      -14.0257202460       10.5067352972  MEMB      26              0.0000000000
      2897        26  SAPE      H4Y           -18.8122192865      -12.7499733057       10.3139844515  MEMB      26              0.0000000000
      2898        26  SAPE      C35           -20.8114582192      -12.0996755802        9.8230611861  MEMB      26              0.0000000000
      2899        26  SAPE      H5X           -20.7226843896      -11.0353246077       10.1289975258  MEMB      26              0.0000000000
      2900        26  SAPE      H5Y           -21.8574235317      -12.3155143672       10.1291513063  MEMB      26              0.0000000000
      2901        26  SAPE      C36           -20.7292402264      -12.2553505294        8.2760514914  MEMB      26              0.0000000000
      2902        26  SAPE      H6X           -20.7514849671      -13.2462362647        7.7740844393  MEMB      26              0.0000000000
      2903        26  SAPE      H6Y           -19.8276929196      -11.7444994023        7.8753465650  MEMB      26              0.0000000000
      2904        26  SAPE      C37           -21.9893892502      -11.5008547088        7.7188765876  MEMB      26              0.0000000000
      2905        26  SAPE      H7X           -22.2484689765      -10.6046660160        8.3222376802  MEMB      26              0.0000000000
      2906        26  SAPE      H7Y           -22.8747490340      -12.1710315475        7.7552370354  MEMB      26              0.0000000000
      2907        26  SAPE      C38           -21.8752912271      -11.1845336949        6.1855804025  MEMB      26              0.0000000000
      2908        26  SAPE      H8X           -21.5802893579      -12.1381152750        5.6977508541  MEMB      26              0.0000000000
      2909        26  SAPE      H8Y           -20.9720676927      -10.5453708981        6.0856850635  MEMB      26              0.0000000000
      2910        26  SAPE      C39           -23.1262159548      -10.6807108038        5.4204497876  MEMB      26              0.0000000000
      2911        26  SAPE      H9X           -23.5048366518       -9.7985747640        5.9797382841  MEMB      26              0.0000000000
      2912        26  SAPE      H9Y           -23.9610347043      -11.4117307808        5.4752971932  MEMB      26              0.0000000000
      2913        26  SAPE      C310          -22.9175740584      -10.1345691840        3.9644838760  MEMB      26              0.0000000000
      2914        26  SAPE      H10X          -21.9923615855       -9.5337439447        3.8329087013  MEMB      26              0.0000000000
      2915        26  SAPE      H10Y          -23.7013513545       -9.3683667738        3.7829675702  MEMB      26              0.0000000000
      2916        26  SAPE      C311          -23.1917905746      -11.1387868803        2.8514965940  MEMB      26              0.0000000000
      2917        26  SAPE      H11X          -24.1607194794      -11.5536224437        3.2027922525  MEMB      26              0.0000000000
      2918        26  SAPE      H11Y          -22.3954401495      -11.9099592201        2.9252542714  MEMB      26              0.0000000000
      2919        26  SAPE      C312          -23.2366140749      -10.5898822544        1.5001721256  MEMB      26              0.0000000000
      2920        26  SAPE      H12X          -22.3063485639       -9.9826032377        1.5119780337  MEMB      26              0.0000000000
      2921        26  SAPE      H12Y          -24.1132325493       -9.9410955667        1.2881887786  MEMB      26              0.0000000000
      2922        26  SAPE      C313          -23.2423449975      -11.8142215676        0.5071529731  MEMB      26              0.0000000000
      2923        26  SAPE      H13X          -23.4520190436      -11.1933111343       -0.3899682308  MEMB      26              0.0000000000
      2924        26  SAPE      H13Y          -24.0610356876      -12.5440845820        0.6842582045  MEMB      26              0.0000000000
      2925        26  SAPE      C314          -21.8797005865      -12.4944908949        0.2080622097  MEMB      26              0.0000000000
      2926        26  SAPE      H14X          -21.6784572972      -13.3875907868        0.8375010037  MEMB      26              0.0000000000
      2927        26  SAPE      H14Y          -21.1038281643      -11.7029350866        0.2840996247  MEMB      26              0.0000000000
      2928        26  SAPE      C315          -21.7437414614      -12.9104746187       -1.2293942169  MEMB      26              0.0000000000
      2929        26  SAPE      H15X          -20.7781858510      -13.4571181393       -1.2859999978  MEMB      26              0.0000000000
      2930        26  SAPE      H15Y          -21.6409623968      -11.9534916082       -1.7843187304  MEMB      26              0.0000000000
      2931        26  SAPE      C316          -22.9331617650      -13.8203829688       -1.7794193203  MEMB      26              0.0000000000
      2932        26  SAPE      H16X          -22.6578477619      -13.9254077671       -2.8506313874  MEMB      26              0.0000000000
      2933        26  SAPE      H16Y          -23.9003109019      -13.2817271689       -1.8731933814  MEMB      26              0.0000000000
      2934        26  SAPE      C317          -23.0282555947      -15.2332632570       -1.1723422322  MEMB      26              0.0000000000
      2935        26  SAPE      H17X          -23.7612404174      -15.7311339276       -1.8425501133  MEMB      26              0.0000000000
      2936        26  SAPE      H17Y          -23.5239163324      -15.2067527120       -0.1783905825  MEMB      26              0.0000000000
      2937        26  SAPE      C318          -21.8123835480      -16.1248613882       -1.2221743261  MEMB      26              0.0000000000
      2938        26  SAPE      H18X          -22.1200981775      -17.1352726534       -0.8776423206  MEMB      26              0.0000000000
      2939        26  SAPE      H18Y          -21.0461612562      -15.7720453820       -0.4991637128  MEMB      26              0.0000000000
      2940        26  SAPE      H18Z          -21.4716501820      -16.3282727632       -2.2598872460  MEMB      26              0.0000000000
      2941        27  SOPE      N              -1.7084050320      -24.5974680745       20.9734782246  MEMB      27              0.0000000000
      2942        27  SOPE      HN1            -2.2355548362      -24.5477756949       20.0783560777  MEMB      27              0.0000000000
      2943        27  SOPE      HN2            -0.9105603008      -25.2641003205       20.9480705181  MEMB      27              0.0000000000
      2944        27  SOPE      HN3            -2.2985126282      -25.0579711226       21.6954962113  MEMB      27              0.0000000000
      2945        27  SOPE      C12            -0.9274593417      -23.4025698663       21.3618621801  MEMB      27              0.0000000000
      2946        27  SOPE      H12A           -0.2187162771      -23.1148305206       20.5561263525  MEMB      27              0.0000000000
      2947        27  SOPE      H12B           -0.2519018789      -23.5836511778       22.2250844356  MEMB      27              0.0000000000
      2948        27  SOPE      C11            -1.8808091402      -22.1818636187       21.5902885941  MEMB      27              0.0000000000
      2949        27  SOPE      H11A           -1.1715952262      -21.3324234016       21.6892221718  MEMB      27              0.0000000000
      2950        27  SOPE      H11B           -2.4079959839      -22.3132913550       22.5593715739  MEMB      27              0.0000000000
      2951        27  SOPE      P              -4.1297249875      -21.0956391415       20.8524120951  MEMB      27              0.0000000000
      2952        27  SOPE      O13            -4.1373193863      -19.8249650844       20.1381719067  MEMB      27              0.0000000000
      2953        27  SOPE      O14            -4.3013582186      -21.0967550257       22.3220661396  MEMB      27              0.0000000000
      2954        27  SOPE      O12            -2.7863399748      -21.8823019443       20.5070158182  MEMB      27              0.0000000000
      2955        27  SOPE      O11            -5.2264447159      -21.9622228471       20.2547050783  MEMB      27              0.0000000000
      2956        27  SOPE      C1             -4.9849879003      -23.0169257987       19.3126958666  MEMB      27              0.0000000000
      2957        27  SOPE      HA             -5.7745159221      -23.7843007574       19.4613635037  MEMB      27              0.0000000000
      2958        27  SOPE      HB             -4.0397947238      -23.5725191623       19.4922700272  MEMB      27              0.0000000000
      2959        27  SOPE      C2             -5.0952679695      -22.5964515266       17.8482291897  MEMB      27              0.0000000000
      2960        27  SOPE      HS             -5.0013317922      -23.4369676323       17.1277920149  MEMB      27              0.0000000000
      2961        27  SOPE      O21            -4.0562551751      -21.7311398935       17.3854241569  MEMB      27              0.0000000000
      2962        27  SOPE      C21            -2.8010758030      -22.1335028950       17.3481783113  MEMB      27              0.0000000000
      2963        27  SOPE      O22            -2.4666436927      -23.3393944235       17.4787232946  MEMB      27              0.0000000000
      2964        27  SOPE      C22            -1.9191784311      -20.9895871980       17.0847310241  MEMB      27              0.0000000000
      2965        27  SOPE      H2R            -0.9100786644      -21.4227054038       16.9160677470  MEMB      27              0.0000000000
      2966        27  SOPE      H2S            -2.0081965837      -20.2126932364       17.8739283574  MEMB      27              0.0000000000
      2967        27  SOPE      C3             -6.4764422668      -21.9250985472       17.5919111183  MEMB      27              0.0000000000
      2968        27  SOPE      HX             -6.6224738998      -21.0150973696       18.2123088326  MEMB      27              0.0000000000
      2969        27  SOPE      HY             -7.3093279056      -22.6348799063       17.7838305771  MEMB      27              0.0000000000
      2970        27  SOPE      O31            -6.4795980756      -21.6772844322       16.2288534071  MEMB      27              0.0000000000
      2971        27  SOPE      C31            -6.4286442174      -20.3787601938       15.8037008531  MEMB      27              0.0000000000
      2972        27  SOPE      O32            -6.4358411609      -19.4476901498       16.5511603831  MEMB      27              0.0000000000
      2973        27  SOPE      C32            -6.5337257744      -20.3793874353       14.3154403063  MEMB      27              0.0000000000
      2974        27  SOPE      H2X            -7.3516128132      -21.0731961409       14.0255935379  MEMB      27              0.0000000000
      2975        27  SOPE      H2Y            -5.6185138552      -20.7980575749       13.8448836950  MEMB      27              0.0000000000
      2976        27  SOPE      C23            -2.3011581780      -20.0841081290       15.8436519502  MEMB      27              0.0000000000
      2977        27  SOPE      H3R            -1.5404127474      -19.2982422230       15.6487104206  MEMB      27              0.0000000000
      2978        27  SOPE      H3S            -3.2760016140      -19.5792915018       16.0144188006  MEMB      27              0.0000000000
      2979        27  SOPE      C24            -2.2004638826      -20.8065768937       14.4672425244  MEMB      27              0.0000000000
      2980        27  SOPE      H4R            -2.9290230391      -21.6451184616       14.4479908962  MEMB      27              0.0000000000
      2981        27  SOPE      H4S            -2.4413743821      -20.0422789924       13.6977414570  MEMB      27              0.0000000000
      2982        27  SOPE      C25            -0.7610850602      -21.3483162486       14.0768777309  MEMB      27              0.0000000000
      2983        27  SOPE      H5R             0.0476186180      -20.5896705035       14.0077666600  MEMB      27              0.0000000000
      2984        27  SOPE      H5S            -0.3740064364      -22.1816081239       14.7014700994  MEMB      27              0.0000000000
      2985        27  SOPE      C26            -0.7390520561      -21.9065338484       12.6563987072  MEMB      27              0.0000000000
      2986        27  SOPE      H6R            -1.3533114547      -22.7929230327       12.3893396762  MEMB      27              0.0000000000
      2987        27  SOPE      H6S            -1.1929256526      -21.0363209915       12.1357737485  MEMB      27              0.0000000000
      2988        27  SOPE      C27             0.6871933911      -22.1874463132       12.0358776831  MEMB      27              0.0000000000
      2989        27  SOPE      H7R             1.2976245871      -21.3233999748       12.3751691966  MEMB      27              0.0000000000
      2990        27  SOPE      H7S             1.1033669321      -23.1880740860       12.2805493026  MEMB      27              0.0000000000
      2991        27  SOPE      C28             0.7737335342      -22.0607417035       10.5225774795  MEMB      27              0.0000000000
      2992        27  SOPE      H8R             0.1952350882      -21.2097893384       10.1036014451  MEMB      27              0.0000000000
      2993        27  SOPE      H8S             1.8176605316      -21.7839525051       10.2619528023  MEMB      27              0.0000000000
      2994        27  SOPE      C29             0.4893429100      -23.3895657338        9.8377982888  MEMB      27              0.0000000000
      2995        27  SOPE      H91             1.4337886550      -23.9530772018        9.8159516761  MEMB      27              0.0000000000
      2996        27  SOPE      C210           -0.6447410394      -23.9843445405        9.4249839001  MEMB      27              0.0000000000
      2997        27  SOPE      H101           -0.5690528064      -24.9172699279        8.8471246269  MEMB      27              0.0000000000
      2998        27  SOPE      C211           -2.0353375378      -23.3812588539        9.5227710230  MEMB      27              0.0000000000
      2999        27  SOPE      H11R           -2.0295337746      -22.7619132643       10.4451046049  MEMB      27              0.0000000000
      3000        27  SOPE      H11S           -2.8672109728      -24.1176488653        9.5166532273  MEMB      27              0.0000000000
      3001        27  SOPE      C212           -2.4340623615      -22.4022048377        8.3648868136  MEMB      27              0.0000000000
      3002        27  SOPE      H12R           -1.8464575313      -21.4682277702        8.4942254227  MEMB      27              0.0000000000
      3003        27  SOPE      H12S           -3.4547204101      -22.0651073083        8.6458551946  MEMB      27              0.0000000000
      3004        27  SOPE      C213           -2.1752452574      -22.7614573654        6.9207091677  MEMB      27              0.0000000000
      3005        27  SOPE      H13R           -2.1488513522      -23.8679807377        6.8246348770  MEMB      27              0.0000000000
      3006        27  SOPE      H13S           -1.2195308122      -22.3963453951        6.4875529698  MEMB      27              0.0000000000
      3007        27  SOPE      C214           -3.2203095168      -22.1379068828        5.9189963891  MEMB      27              0.0000000000
      3008        27  SOPE      H14R           -3.3346661707      -21.0421237489        6.0621848439  MEMB      27              0.0000000000
      3009        27  SOPE      H14S           -4.1627909204      -22.5997314131        6.2833697689  MEMB      27              0.0000000000
      3010        27  SOPE      C215           -3.0315228424      -22.5975993660        4.4797883985  MEMB      27              0.0000000000
      3011        27  SOPE      H15R           -3.3251441570      -23.6664953210        4.4051621622  MEMB      27              0.0000000000
      3012        27  SOPE      H15S           -2.0124406860      -22.2543193033        4.2005913538  MEMB      27              0.0000000000
      3013        27  SOPE      C216           -3.9110837092      -21.9259241523        3.4429320978  MEMB      27              0.0000000000
      3014        27  SOPE      H16R           -3.8341136712      -20.8176594730        3.4550124532  MEMB      27              0.0000000000
      3015        27  SOPE      H16S           -4.9536283518      -22.1723275411        3.7373924851  MEMB      27              0.0000000000
      3016        27  SOPE      C217           -3.9078527681      -22.4633652788        1.9601466563  MEMB      27              0.0000000000
      3017        27  SOPE      H17R           -2.8629219732      -22.3325945433        1.6061121804  MEMB      27              0.0000000000
      3018        27  SOPE      H17S           -4.6061453777      -21.8021047089        1.4038695088  MEMB      27              0.0000000000
      3019        27  SOPE      C218           -4.5195655249      -23.8486044703        1.7221460141  MEMB      27              0.0000000000
      3020        27  SOPE      H18R           -4.0762730708      -24.4697246563        2.5296264771  MEMB      27              0.0000000000
      3021        27  SOPE      H18S           -4.0734821914      -24.1704291956        0.7568706503  MEMB      27              0.0000000000
      3022        27  SOPE      H18T           -5.6275026327      -23.9137329857        1.6716017454  MEMB      27              0.0000000000
      3023        27  SOPE      C33            -6.6829752908      -18.9970693480       13.8299808332  MEMB      27              0.0000000000
      3024        27  SOPE      H3X            -5.8613564563      -18.3043245686       14.1117044960  MEMB      27              0.0000000000
      3025        27  SOPE      H3Y            -7.6607057777      -18.6121959699       14.1908643276  MEMB      27              0.0000000000
      3026        27  SOPE      C34            -6.8605598581      -18.8173458805       12.3186321638  MEMB      27              0.0000000000
      3027        27  SOPE      H4X            -6.9815888108      -17.7421512180       12.0663845777  MEMB      27              0.0000000000
      3028        27  SOPE      H4Y            -7.8068627302      -19.3082867262       12.0058875581  MEMB      27              0.0000000000
      3029        27  SOPE      C35            -5.7523068508      -19.3244581324       11.3809215707  MEMB      27              0.0000000000
      3030        27  SOPE      H5X            -6.1862286411      -19.6281791991       10.4043021846  MEMB      27              0.0000000000
      3031        27  SOPE      H5Y            -5.2113422608      -20.2501982235       11.6719264611  MEMB      27              0.0000000000
      3032        27  SOPE      C36            -4.6516711761      -18.3048890027       11.1378838715  MEMB      27              0.0000000000
      3033        27  SOPE      H6X            -4.1513553712      -18.0579144381       12.0986164353  MEMB      27              0.0000000000
      3034        27  SOPE      H6Y            -5.1903072214      -17.4081581108       10.7636298028  MEMB      27              0.0000000000
      3035        27  SOPE      C37            -3.5412697240      -18.9055672896       10.1754334683  MEMB      27              0.0000000000
      3036        27  SOPE      H7X            -4.0762297053      -19.3431790970        9.3055853729  MEMB      27              0.0000000000
      3037        27  SOPE      H7Y            -3.1076929943      -19.7595083336       10.7385639338  MEMB      27              0.0000000000
      3038        27  SOPE      C38            -2.6216694590      -17.8214457771        9.6123938031  MEMB      27              0.0000000000
      3039        27  SOPE      H8X            -2.3892215398      -17.0461311302       10.3734296047  MEMB      27              0.0000000000
      3040        27  SOPE      H8Y            -3.1483918113      -17.4086824399        8.7255396382  MEMB      27              0.0000000000
      3041        27  SOPE      C39            -1.3308849627      -18.5273173282        9.0555397576  MEMB      27              0.0000000000
      3042        27  SOPE      H9X            -1.7080886788      -19.3114832141        8.3647998424  MEMB      27              0.0000000000
      3043        27  SOPE      H9Y            -0.8543943275      -19.0356409726        9.9209214734  MEMB      27              0.0000000000
      3044        27  SOPE      C310           -0.5191411653      -17.5339231246        8.2985812618  MEMB      27              0.0000000000
      3045        27  SOPE      H10X           -0.0989153541      -16.8377623550        9.0556096063  MEMB      27              0.0000000000
      3046        27  SOPE      H10Y           -1.1963187660      -17.0512625110        7.5618380861  MEMB      27              0.0000000000
      3047        27  SOPE      C311            0.7522696396      -18.1048956902        7.5773880305  MEMB      27              0.0000000000
      3048        27  SOPE      H11X            1.5655385370      -18.5849318830        8.1626052486  MEMB      27              0.0000000000
      3049        27  SOPE      H11Y            1.2478019362      -17.2620828255        7.0497179729  MEMB      27              0.0000000000
      3050        27  SOPE      C312            0.4910664292      -19.0220824673        6.3413002204  MEMB      27              0.0000000000
      3051        27  SOPE      H12X           -0.2407107785      -19.7942404706        6.6616052306  MEMB      27              0.0000000000
      3052        27  SOPE      H12Y            1.4118239845      -19.3758990586        5.8300853823  MEMB      27              0.0000000000
      3053        27  SOPE      C313           -0.2625499176      -18.2538022457        5.1878575163  MEMB      27              0.0000000000
      3054        27  SOPE      H13X            0.1726986893      -17.2342912508        5.1138489414  MEMB      27              0.0000000000
      3055        27  SOPE      H13Y           -1.3374207837      -18.0623670647        5.3935908477  MEMB      27              0.0000000000
      3056        27  SOPE      C314           -0.2451559768      -19.0419315667        3.9031400831  MEMB      27              0.0000000000
      3057        27  SOPE      H14X           -0.9838694681      -18.6249762681        3.1856644235  MEMB      27              0.0000000000
      3058        27  SOPE      H14Y           -0.5793642329      -20.0536921656        4.2177290087  MEMB      27              0.0000000000
      3059        27  SOPE      C315            1.1417741795      -19.1279762076        3.2481108710  MEMB      27              0.0000000000
      3060        27  SOPE      H15X            1.8541930440      -19.6001000099        3.9579559481  MEMB      27              0.0000000000
      3061        27  SOPE      H15Y            1.5730058707      -18.1302505506        3.0181024751  MEMB      27              0.0000000000
      3062        27  SOPE      C316            1.2299484475      -20.0601973826        1.9818693172  MEMB      27              0.0000000000
      3063        27  SOPE      H16X            2.2119093285      -20.1306321310        1.4669788549  MEMB      27              0.0000000000
      3064        27  SOPE      H16Y            0.4337192766      -19.7304804932        1.2807086238  MEMB      27              0.0000000000
      3065        27  SOPE      C317            0.7480686583      -21.5043804689        2.2702885740  MEMB      27              0.0000000000
      3066        27  SOPE      H17X           -0.2869486047      -21.5149911186        2.6739562404  MEMB      27              0.0000000000
      3067        27  SOPE      H17Y            1.4073042415      -21.7175859978        3.1387769704  MEMB      27              0.0000000000
      3068        27  SOPE      C318            0.8265801415      -22.4370110537        1.0450257459  MEMB      27              0.0000000000
      3069        27  SOPE      H18X            0.5947263140      -23.4921629566        1.3042922049  MEMB      27              0.0000000000
      3070        27  SOPE      H18Y            1.8049866482      -22.4573654725        0.5190727120  MEMB      27              0.0000000000
      3071        27  SOPE      H18Z            0.1841395956      -22.1967045140        0.1710455056  MEMB      27              0.0000000000
      3072        28  SLPC      N             -16.4614810995      -15.3124002650       18.1265628689  MEMB      28              0.0000000000
      3073        28  SLPC      C13           -16.7517192938      -15.9580415413       19.3923227791  MEMB      28              0.0000000000
      3074        28  SLPC      H13A          -16.3086708421      -16.9362658436       19.2774956131  MEMB      28              0.0000000000
      3075        28  SLPC      H13B          -16.3778520254      -15.2930651383       20.1568028139  MEMB      28              0.0000000000
      3076        28  SLPC      H13C          -17.8055751687      -16.0882095749       19.5894121917  MEMB      28              0.0000000000
      3077        28  SLPC      C14           -17.2544989747      -14.0604023195       17.9278446703  MEMB      28              0.0000000000
      3078        28  SLPC      H14A          -18.3168928345      -14.2393814831       17.8524415500  MEMB      28              0.0000000000
      3079        28  SLPC      H14B          -17.1529322941      -13.2986425922       18.6866637607  MEMB      28              0.0000000000
      3080        28  SLPC      H14C          -16.9775010858      -13.6171534784       16.9827506820  MEMB      28              0.0000000000
      3081        28  SLPC      C15           -16.8936102126      -16.2547225060       17.0647591140  MEMB      28              0.0000000000
      3082        28  SLPC      H15A          -16.7055120703      -15.8188347385       16.0946968168  MEMB      28              0.0000000000
      3083        28  SLPC      H15B          -16.3149711886      -17.1605409296       17.1699725604  MEMB      28              0.0000000000
      3084        28  SLPC      H15C          -17.9393882225      -16.5236685683       17.0851677960  MEMB      28              0.0000000000
      3085        28  SLPC      C12           -14.9794921745      -14.9010271573       18.0939071677  MEMB      28              0.0000000000
      3086        28  SLPC      H12A          -14.7728353996      -14.3559460013       19.0030713191  MEMB      28              0.0000000000
      3087        28  SLPC      H12B          -14.7485475883      -14.1483392039       17.3546334898  MEMB      28              0.0000000000
      3088        28  SLPC      C11           -13.9149784410      -16.0180371855       18.0432585638  MEMB      28              0.0000000000
      3089        28  SLPC      H11A          -14.1375939328      -16.6855739730       18.9030014974  MEMB      28              0.0000000000
      3090        28  SLPC      H11B          -12.9384115414      -15.4975991514       18.1421644457  MEMB      28              0.0000000000
      3091        28  SLPC      P             -13.0429057105      -16.6013935767       15.6005998859  MEMB      28              0.0000000000
      3092        28  SLPC      O13           -13.2892209466      -17.5479696914       14.4918966913  MEMB      28              0.0000000000
      3093        28  SLPC      O14           -13.0544155050      -15.1411999745       15.2622722389  MEMB      28              0.0000000000
      3094        28  SLPC      O12           -13.9514361800      -16.9153184537       16.8529336115  MEMB      28              0.0000000000
      3095        28  SLPC      O11           -11.6694655491      -17.0698227243       16.1436424087  MEMB      28              0.0000000000
      3096        28  SLPC      C1            -10.3697666684      -16.5052722618       15.8466032822  MEMB      28              0.0000000000
      3097        28  SLPC      HA            -10.3761138874      -15.4272129062       16.1150592611  MEMB      28              0.0000000000
      3098        28  SLPC      HB             -9.6285180462      -16.8551997971       16.5965516606  MEMB      28              0.0000000000
      3099        28  SLPC      C2             -9.8461108431      -17.0075511312       14.5112979654  MEMB      28              0.0000000000
      3100        28  SLPC      HS             -8.8434027496      -16.5516014801       14.3663595078  MEMB      28              0.0000000000
      3101        28  SLPC      O21           -10.6355523387      -16.5913197682       13.3898602349  MEMB      28              0.0000000000
      3102        28  SLPC      C21           -10.4451048209      -15.3279660706       13.0231472329  MEMB      28              0.0000000000
      3103        28  SLPC      O22            -9.5777528907      -14.6039435521       13.4377069227  MEMB      28              0.0000000000
      3104        28  SLPC      C22           -11.4108515486      -15.0667587543       11.8632994820  MEMB      28              0.0000000000
      3105        28  SLPC      H2R           -11.4468731929      -16.0247976795       11.3018861693  MEMB      28              0.0000000000
      3106        28  SLPC      H2S           -12.3804971749      -14.7764664253       12.3213806723  MEMB      28              0.0000000000
      3107        28  SLPC      C3             -9.7723691372      -18.5199754607       14.4648308282  MEMB      28              0.0000000000
      3108        28  SLPC      HX            -10.6094842320      -19.0907355819       14.9206733427  MEMB      28              0.0000000000
      3109        28  SLPC      HY             -8.8915606764      -18.8617534760       15.0493690341  MEMB      28              0.0000000000
      3110        28  SLPC      O31            -9.5867543297      -18.9832452646       13.1044020954  MEMB      28              0.0000000000
      3111        28  SLPC      C31           -10.5532140550      -19.4826191369       12.3587701905  MEMB      28              0.0000000000
      3112        28  SLPC      O32           -11.6084324868      -19.9122112547       12.7868868413  MEMB      28              0.0000000000
      3113        28  SLPC      C32           -10.0621930550      -19.7443590947       10.9835441552  MEMB      28              0.0000000000
      3114        28  SLPC      H2X            -9.6618195099      -20.7769186426       10.8949813450  MEMB      28              0.0000000000
      3115        28  SLPC      H2Y            -9.2626827549      -19.0239170597       10.7077410787  MEMB      28              0.0000000000
      3116        28  SLPC      C23           -10.9736302122      -13.8561700629       10.9936622556  MEMB      28              0.0000000000
      3117        28  SLPC      H3R            -9.9243436520      -14.0355021743       10.6756075756  MEMB      28              0.0000000000
      3118        28  SLPC      H3S           -10.9443747805      -12.9441949824       11.6275132380  MEMB      28              0.0000000000
      3119        28  SLPC      C24           -11.9340486098      -13.5854394841        9.8808734539  MEMB      28              0.0000000000
      3120        28  SLPC      H4R           -11.5287329168      -12.7174584013        9.3181574597  MEMB      28              0.0000000000
      3121        28  SLPC      H4S           -12.9404439713      -13.3012483193       10.2560065746  MEMB      28              0.0000000000
      3122        28  SLPC      C25           -12.1075954299      -14.7285129173        8.9357070078  MEMB      28              0.0000000000
      3123        28  SLPC      H5R           -12.6233052972      -15.5496322376        9.4780421196  MEMB      28              0.0000000000
      3124        28  SLPC      H5S           -11.1412953951      -15.1426721373        8.5764615575  MEMB      28              0.0000000000
      3125        28  SLPC      C26           -12.9341309679      -14.3188369404        7.7190701445  MEMB      28              0.0000000000
      3126        28  SLPC      H6R           -14.0246053825      -14.3118426671        7.9315267203  MEMB      28              0.0000000000
      3127        28  SLPC      H6S           -12.9821439589      -15.1784154233        7.0168307001  MEMB      28              0.0000000000
      3128        28  SLPC      C27           -12.4702044926      -13.1066555838        6.9353662083  MEMB      28              0.0000000000
      3129        28  SLPC      H7R           -12.4805782543      -12.2584505889        7.6528352819  MEMB      28              0.0000000000
      3130        28  SLPC      H7S           -13.2269179538      -12.8616164699        6.1596978342  MEMB      28              0.0000000000
      3131        28  SLPC      C28           -11.1638449116      -13.1541743717        6.1832988739  MEMB      28              0.0000000000
      3132        28  SLPC      H8R           -10.4362204313      -13.5089016855        6.9442542526  MEMB      28              0.0000000000
      3133        28  SLPC      H8S           -10.9020913568      -12.0891367894        6.0058150598  MEMB      28              0.0000000000
      3134        28  SLPC      C29           -11.1625384083      -14.1503380845        5.0124140293  MEMB      28              0.0000000000
      3135        28  SLPC      H9R           -11.6797821630      -13.7227963958        4.1408246702  MEMB      28              0.0000000000
      3136        28  SLPC      C210          -10.8740254457      -15.4489189860        4.9272158253  MEMB      28              0.0000000000
      3137        28  SLPC      H10R          -11.0603116681      -15.9229166258        3.9522166376  MEMB      28              0.0000000000
      3138        28  SLPC      C211          -10.3350198775      -16.3535893788        5.9865163947  MEMB      28              0.0000000000
      3139        28  SLPC      H11R          -11.1853600498      -16.9281410819        6.4121128933  MEMB      28              0.0000000000
      3140        28  SLPC      H11S          -10.0923843061      -15.7376734394        6.8787583064  MEMB      28              0.0000000000
      3141        28  SLPC      C212           -9.1495651563      -17.1899010949        5.5265142681  MEMB      28              0.0000000000
      3142        28  SLPC      H12R           -8.2071705754      -16.6520305559        5.7070346356  MEMB      28              0.0000000000
      3143        28  SLPC      C213           -9.0863345469      -18.3959884641        5.0005073021  MEMB      28              0.0000000000
      3144        28  SLPC      H13R           -8.1246313813      -18.8793493444        4.7735951768  MEMB      28              0.0000000000
      3145        28  SLPC      C214          -10.2145374340      -19.3605462245        4.6617044378  MEMB      28              0.0000000000
      3146        28  SLPC      H14R          -11.1780978743      -18.9766425455        5.0598127679  MEMB      28              0.0000000000
      3147        28  SLPC      H14S          -10.0832429032      -20.3381938973        5.1728668985  MEMB      28              0.0000000000
      3148        28  SLPC      C215          -10.5438592198      -19.6757744969        3.1815322019  MEMB      28              0.0000000000
      3149        28  SLPC      H15R          -11.6227638435      -19.9331708825        3.1180274054  MEMB      28              0.0000000000
      3150        28  SLPC      H15S           -9.9616657716      -20.5756351700        2.8889189235  MEMB      28              0.0000000000
      3151        28  SLPC      C216          -10.4163428151      -18.4812236196        2.2175565730  MEMB      28              0.0000000000
      3152        28  SLPC      H16R           -9.4222164274      -18.0124193896        2.3795952218  MEMB      28              0.0000000000
      3153        28  SLPC      H16S          -11.1488340626      -17.7329661795        2.5888893272  MEMB      28              0.0000000000
      3154        28  SLPC      C217          -10.6295215067      -18.8485170163        0.7650633584  MEMB      28              0.0000000000
      3155        28  SLPC      H17R           -9.9480896584      -19.6607065444        0.4329194429  MEMB      28              0.0000000000
      3156        28  SLPC      H17S          -10.2532173091      -17.9303081277        0.2654541196  MEMB      28              0.0000000000
      3157        28  SLPC      C218          -12.0736826694      -19.1901444581        0.2909690050  MEMB      28              0.0000000000
      3158        28  SLPC      H18R          -12.7399822126      -18.3040238423        0.3627734728  MEMB      28              0.0000000000
      3159        28  SLPC      H18S          -12.4978394684      -20.0535476845        0.8467994363  MEMB      28              0.0000000000
      3160        28  SLPC      H18T          -12.0302902173      -19.4194568755       -0.7952420295  MEMB      28              0.0000000000
      3161        28  SLPC      C33           -11.2215667790      -19.4627167957        9.9425906705  MEMB      28              0.0000000000
      3162        28  SLPC      H3X           -10.8791702346      -18.7434739560        9.1681392036  MEMB      28              0.0000000000
      3163        28  SLPC      H3Y           -12.0462309359      -18.8974487577       10.4270722183  MEMB      28              0.0000000000
      3164        28  SLPC      C34           -11.7363762978      -20.7344116581        9.3383611702  MEMB      28              0.0000000000
      3165        28  SLPC      H4X           -12.1639168327      -21.3019462057       10.1924305017  MEMB      28              0.0000000000
      3166        28  SLPC      H4Y           -10.9860967494      -21.4805677191        8.9997563989  MEMB      28              0.0000000000
      3167        28  SLPC      C35           -12.7814461236      -20.4946974398        8.1880381049  MEMB      28              0.0000000000
      3168        28  SLPC      H5X           -13.0955315494      -21.4790990837        7.7798404699  MEMB      28              0.0000000000
      3169        28  SLPC      H5Y           -12.2454740477      -19.8964629474        7.4204633551  MEMB      28              0.0000000000
      3170        28  SLPC      C36           -14.0455984252      -19.7764389820        8.6345759363  MEMB      28              0.0000000000
      3171        28  SLPC      H6X           -13.6392569405      -18.8166916665        9.0194047559  MEMB      28              0.0000000000
      3172        28  SLPC      H6Y           -14.3825530847      -20.2963259783        9.5568020065  MEMB      28              0.0000000000
      3173        28  SLPC      C37           -15.1478429109      -19.5085454718        7.6041899139  MEMB      28              0.0000000000
      3174        28  SLPC      H7X           -15.9833425080      -19.0129140065        8.1432727261  MEMB      28              0.0000000000
      3175        28  SLPC      H7Y           -15.3750736569      -20.4910920479        7.1380464484  MEMB      28              0.0000000000
      3176        28  SLPC      C38           -14.7102289670      -18.5763984750        6.4395817436  MEMB      28              0.0000000000
      3177        28  SLPC      H8X           -13.7668078469      -18.9518400966        5.9886708758  MEMB      28              0.0000000000
      3178        28  SLPC      H8Y           -14.5391959679      -17.5230844401        6.7487722446  MEMB      28              0.0000000000
      3179        28  SLPC      C39           -15.7531965204      -18.5615357465        5.2646777655  MEMB      28              0.0000000000
      3180        28  SLPC      H9X           -16.7108544776      -18.1035318823        5.5924663538  MEMB      28              0.0000000000
      3181        28  SLPC      H9Y           -16.0517038666      -19.5731055930        4.9154779303  MEMB      28              0.0000000000
      3182        28  SLPC      C310          -15.1129951503      -17.7800498517        4.1142738770  MEMB      28              0.0000000000
      3183        28  SLPC      H10X          -15.7158290171      -17.8502556359        3.1836913295  MEMB      28              0.0000000000
      3184        28  SLPC      H10Y          -14.1850584103      -18.3846195572        4.0262424033  MEMB      28              0.0000000000
      3185        28  SLPC      C311          -14.6983086425      -16.3461855707        4.3608114543  MEMB      28              0.0000000000
      3186        28  SLPC      H11X          -13.7932208206      -16.2061888888        4.9897296341  MEMB      28              0.0000000000
      3187        28  SLPC      H11Y          -15.4736603538      -15.9581401208        5.0554851254  MEMB      28              0.0000000000
      3188        28  SLPC      C312          -14.9143643115      -15.4329142088        3.1960903052  MEMB      28              0.0000000000
      3189        28  SLPC      H12X          -14.9140474605      -14.4135885767        3.6380135348  MEMB      28              0.0000000000
      3190        28  SLPC      H12Y          -15.8640015477      -15.7392423571        2.7075486865  MEMB      28              0.0000000000
      3191        28  SLPC      C313          -13.8321912168      -15.6401487645        2.0690352203  MEMB      28              0.0000000000
      3192        28  SLPC      H13X          -13.5848055267      -16.7187619556        1.9704716728  MEMB      28              0.0000000000
      3193        28  SLPC      H13Y          -12.9369313521      -15.1113685527        2.4604717823  MEMB      28              0.0000000000
      3194        28  SLPC      C314          -14.2482973694      -15.0576360992        0.7904931625  MEMB      28              0.0000000000
      3195        28  SLPC      H14X          -15.1426097003      -15.5568735269        0.3600417015  MEMB      28              0.0000000000
      3196        28  SLPC      H14Y          -13.4569778639      -15.3295890307        0.0596181179  MEMB      28              0.0000000000
      3197        28  SLPC      C315          -14.4745779568      -13.5004425108        0.7451822235  MEMB      28              0.0000000000
      3198        28  SLPC      H15X          -15.4685598769      -13.3771911086        1.2259424783  MEMB      28              0.0000000000
      3199        28  SLPC      H15Y          -14.7059679625      -13.3314233519       -0.3282292182  MEMB      28              0.0000000000
      3200        28  SLPC      C316          -13.2680361807      -12.6690069896        1.1804768793  MEMB      28              0.0000000000
      3201        28  SLPC      H16X          -12.4461806487      -12.9747741355        0.4982872878  MEMB      28              0.0000000000
      3202        28  SLPC      H16Y          -12.9683215291      -12.8833279772        2.2285976973  MEMB      28              0.0000000000
      3203        28  SLPC      C317          -13.3151633734      -11.1160852343        0.9671458775  MEMB      28              0.0000000000
      3204        28  SLPC      H17X          -12.3030402218      -10.7087138571        1.1768505253  MEMB      28              0.0000000000
      3205        28  SLPC      H17Y          -13.9742989891      -10.6201218751        1.7113784667  MEMB      28              0.0000000000
      3206        28  SLPC      C318          -13.5044723796      -10.6926931824       -0.5343183894  MEMB      28              0.0000000000
      3207        28  SLPC      H18X          -14.5167531569      -11.0580019005       -0.8102859550  MEMB      28              0.0000000000
      3208        28  SLPC      H18Y          -12.7891007528      -11.2718535541       -1.1565227505  MEMB      28              0.0000000000
      3209        28  SLPC      H18Z          -13.5797282447       -9.5853541452       -0.5838860326  MEMB      28              0.0000000000
      3210        29  OSM       N             -22.2558494094        3.4041088501       21.3075937152  MEMB      29              0.0000000000
      3211        29  OSM       C15           -22.6206370086        2.1329266476       20.5100939999  MEMB      29              0.0000000000
      3212        29  OSM       H15A          -21.9659726416        1.3228411892       20.7957093698  MEMB      29              0.0000000000
      3213        29  OSM       H15B          -22.4233307546        2.3887849418       19.4795567893  MEMB      29              0.0000000000
      3214        29  OSM       H15C          -23.6737624128        1.8947449829       20.5345175916  MEMB      29              0.0000000000
      3215        29  OSM       C14           -23.3101679602        4.4867830959       21.0384803049  MEMB      29              0.0000000000
      3216        29  OSM       H14A          -24.2218525150        3.9176549537       21.1448975193  MEMB      29              0.0000000000
      3217        29  OSM       H14B          -23.1195469956        4.8495111738       20.0392346097  MEMB      29              0.0000000000
      3218        29  OSM       H14C          -23.2899959718        5.2256841520       21.8258926950  MEMB      29              0.0000000000
      3219        29  OSM       C13           -22.2425798071        3.0814673066       22.8332839391  MEMB      29              0.0000000000
      3220        29  OSM       H13A          -21.3691007589        2.4808564042       23.0399259709  MEMB      29              0.0000000000
      3221        29  OSM       H13B          -23.1291289522        2.5771980739       23.1884502197  MEMB      29              0.0000000000
      3222        29  OSM       H13C          -22.2720289940        3.9408364350       23.4867496987  MEMB      29              0.0000000000
      3223        29  OSM       C12           -20.8657606529        3.8699653992       20.8268187200  MEMB      29              0.0000000000
      3224        29  OSM       H12A          -20.7089218559        3.8612598923       19.7583029768  MEMB      29              0.0000000000
      3225        29  OSM       H12B          -20.1516338104        3.3054240628       21.4079520386  MEMB      29              0.0000000000
      3226        29  OSM       C11           -20.5850392106        5.4248666633       21.2072674198  MEMB      29              0.0000000000
      3227        29  OSM       H11A          -19.4893102686        5.4949255467       21.0375883748  MEMB      29              0.0000000000
      3228        29  OSM       H11B          -20.8994750996        5.4395730454       22.2727413852  MEMB      29              0.0000000000
      3229        29  OSM       P             -21.2509331904        7.8283808007       20.7420139100  MEMB      29              0.0000000000
      3230        29  OSM       O13           -22.6726144332        8.2701519673       20.9197200501  MEMB      29              0.0000000000
      3231        29  OSM       O14           -20.3287983824        8.0650584676       21.8555661270  MEMB      29              0.0000000000
      3232        29  OSM       O11           -20.6561154113        8.5143448564       19.4449918292  MEMB      29              0.0000000000
      3233        29  OSM       O12           -21.3045619364        6.3412081337       20.3141699894  MEMB      29              0.0000000000
      3234        29  OSM       C1S           -20.1278415710        7.7637441107       18.3908982197  MEMB      29              0.0000000000
      3235        29  OSM       H1S           -19.5654410018        6.8744713968       18.7475780330  MEMB      29              0.0000000000
      3236        29  OSM       H1T           -19.3862188027        8.4014018011       17.8639166841  MEMB      29              0.0000000000
      3237        29  OSM       NF            -20.5843364353        6.3967949195       16.4105548851  MEMB      29              0.0000000000
      3238        29  OSM       HNF           -20.6874250149        6.6775935050       15.4594850006  MEMB      29              0.0000000000
      3239        29  OSM       C2S           -21.1604359661        7.3583343063       17.3645806747  MEMB      29              0.0000000000
      3240        29  OSM       H2S           -21.8683719987        6.7236974202       17.9393708023  MEMB      29              0.0000000000
      3241        29  OSM       C3S           -21.7234298553        8.6588137772       16.7106924708  MEMB      29              0.0000000000
      3242        29  OSM       H3S           -20.8529717017        9.2583922447       16.3684508840  MEMB      29              0.0000000000
      3243        29  OSM       O3            -22.5446981190        9.5142047715       17.5416653704  MEMB      29              0.0000000000
      3244        29  OSM       HO3           -22.3977368210        9.2350833273       18.4483592212  MEMB      29              0.0000000000
      3245        29  OSM       C4S           -22.3974938230        8.2292404271       15.4671598524  MEMB      29              0.0000000000
      3246        29  OSM       H4S           -23.2181803485        7.5365259686       15.7051099254  MEMB      29              0.0000000000
      3247        29  OSM       C5S           -22.1636725630        8.6747415498       14.1748440321  MEMB      29              0.0000000000
      3248        29  OSM       H5S           -21.5552327404        9.5771997302       14.0155642045  MEMB      29              0.0000000000
      3249        29  OSM       C6S           -22.9251533892        8.1922420367       12.9156613485  MEMB      29              0.0000000000
      3250        29  OSM       H6S           -22.5733308602        8.7860826676       12.0450898555  MEMB      29              0.0000000000
      3251        29  OSM       H6T           -24.0026464764        8.4463752029       13.0091807859  MEMB      29              0.0000000000
      3252        29  OSM       C7S           -22.7916656487        6.6530950669       12.6542049670  MEMB      29              0.0000000000
      3253        29  OSM       H7S           -23.3338653046        5.9226874001       13.2920491742  MEMB      29              0.0000000000
      3254        29  OSM       H7T           -21.7228760475        6.4136547752       12.8404252186  MEMB      29              0.0000000000
      3255        29  OSM       C8S           -23.2000744431        6.2472408522       11.2461644205  MEMB      29              0.0000000000
      3256        29  OSM       H8S           -24.3060164719        6.3000335788       11.1543714584  MEMB      29              0.0000000000
      3257        29  OSM       H8T           -22.8953791834        5.1790002806       11.2276210881  MEMB      29              0.0000000000
      3258        29  OSM       C9S           -22.6669805409        7.0976751467       10.0065196776  MEMB      29              0.0000000000
      3259        29  OSM       H9S           -23.1155249030        8.1139399363       10.0248185823  MEMB      29              0.0000000000
      3260        29  OSM       H9T           -23.1029770183        6.5976781195        9.1153234239  MEMB      29              0.0000000000
      3261        29  OSM       C10S          -21.1985633591        7.1171754365        9.8961023318  MEMB      29              0.0000000000
      3262        29  OSM       H10S          -20.9321030276        6.1851943153       10.4389943151  MEMB      29              0.0000000000
      3263        29  OSM       H10T          -20.7288688172        7.8764273283       10.5573474455  MEMB      29              0.0000000000
      3264        29  OSM       C11S          -20.7636472965        7.2770254179        8.4700423748  MEMB      29              0.0000000000
      3265        29  OSM       H11S          -21.0894345891        8.2860064126        8.1381672655  MEMB      29              0.0000000000
      3266        29  OSM       H11T          -21.2996428496        6.4844252415        7.9054050531  MEMB      29              0.0000000000
      3267        29  OSM       C12S          -19.2185200630        7.2155660459        8.1354567118  MEMB      29              0.0000000000
      3268        29  OSM       H12S          -18.9321262112        6.2347474710        8.5716839882  MEMB      29              0.0000000000
      3269        29  OSM       H12T          -18.6556027730        8.1256698493        8.4340450730  MEMB      29              0.0000000000
      3270        29  OSM       C13S          -18.9486136195        7.1201615443        6.6028682663  MEMB      29              0.0000000000
      3271        29  OSM       H13S          -17.8787473037        7.3461964295        6.4063600941  MEMB      29              0.0000000000
      3272        29  OSM       H13T          -19.4839701352        7.9430310437        6.0826762091  MEMB      29              0.0000000000
      3273        29  OSM       C14S          -19.2433842286        5.6963833282        6.0898634859  MEMB      29              0.0000000000
      3274        29  OSM       H14S          -20.2824124276        5.3800799346        6.3237304899  MEMB      29              0.0000000000
      3275        29  OSM       H14T          -18.6824010778        4.8820078821        6.5962341443  MEMB      29              0.0000000000
      3276        29  OSM       C15S          -19.1797729005        5.6294004920        4.5294507687  MEMB      29              0.0000000000
      3277        29  OSM       H15S          -20.0203501410        6.2778231972        4.2018860517  MEMB      29              0.0000000000
      3278        29  OSM       H15T          -19.2913173301        4.5481600506        4.2996735047  MEMB      29              0.0000000000
      3279        29  OSM       C16S          -17.8073287194        6.0371439797        3.9707147043  MEMB      29              0.0000000000
      3280        29  OSM       H16S          -17.0886344061        5.5563457494        4.6683049696  MEMB      29              0.0000000000
      3281        29  OSM       H16T          -17.6426024044        7.1337791879        3.9030604539  MEMB      29              0.0000000000
      3282        29  OSM       C17S          -17.6244985968        5.3785618708        2.5764338438  MEMB      29              0.0000000000
      3283        29  OSM       H17S          -18.2416382695        4.4551837941        2.5475795445  MEMB      29              0.0000000000
      3284        29  OSM       H17T          -16.5374284785        5.1791590220        2.4631281109  MEMB      29              0.0000000000
      3285        29  OSM       C18S          -18.2340422665        6.3163857873        1.5256195801  MEMB      29              0.0000000000
      3286        29  OSM       H18S          -18.2859290956        5.6494376647        0.6385974241  MEMB      29              0.0000000000
      3287        29  OSM       H18T          -17.5599794564        7.1754468552        1.3207444999  MEMB      29              0.0000000000
      3288        29  OSM       H18U          -19.2634586027        6.5858960849        1.8449731250  MEMB      29              0.0000000000
      3289        29  OSM       C1F           -20.0637335787        5.1619536221       16.7430162002  MEMB      29              0.0000000000
      3290        29  OSM       OF            -20.3377389318        4.5951352892       17.8120593215  MEMB      29              0.0000000000
      3291        29  OSM       C2F           -19.1942727873        4.4866470977       15.6479999916  MEMB      29              0.0000000000
      3292        29  OSM       H2F           -18.2047617431        4.1402599346       16.0157017507  MEMB      29              0.0000000000
      3293        29  OSM       H2G           -19.0365803980        5.1908594755       14.8032876063  MEMB      29              0.0000000000
      3294        29  OSM       C3F           -19.9230254917        3.1976046587       15.3350666123  MEMB      29              0.0000000000
      3295        29  OSM       H3F           -20.9623699810        3.4921645274       15.0756079502  MEMB      29              0.0000000000
      3296        29  OSM       H3G           -19.9586542526        2.4661142316       16.1705145906  MEMB      29              0.0000000000
      3297        29  OSM       C4F           -19.2450295221        2.4935488761       14.1015842331  MEMB      29              0.0000000000
      3298        29  OSM       H4F           -19.8627770789        1.5788164246       13.9751986415  MEMB      29              0.0000000000
      3299        29  OSM       H4G           -18.1711401032        2.2333889517       14.2173398241  MEMB      29              0.0000000000
      3300        29  OSM       C5F           -19.3819135384        3.3882997734       12.8432441276  MEMB      29              0.0000000000
      3301        29  OSM       H5F           -18.5100151809        4.0702780161       12.7482709621  MEMB      29              0.0000000000
      3302        29  OSM       H5G           -20.3091990678        3.9991021567       12.8804345149  MEMB      29              0.0000000000
      3303        29  OSM       C6F           -19.2200972647        2.6202231546       11.4635092530  MEMB      29              0.0000000000
      3304        29  OSM       H6F           -18.3558804073        1.9238809649       11.5140849616  MEMB      29              0.0000000000
      3305        29  OSM       H6G           -19.1184872612        3.3641273581       10.6446063503  MEMB      29              0.0000000000
      3306        29  OSM       C7F           -20.3106180151        1.6923867790       11.0811169493  MEMB      29              0.0000000000
      3307        29  OSM       H7F           -20.6364317066        1.0822132525       11.9505161365  MEMB      29              0.0000000000
      3308        29  OSM       H7G           -19.8337315645        0.9718387304       10.3827541067  MEMB      29              0.0000000000
      3309        29  OSM       C8F           -21.4651654364        2.3750371678       10.2337859335  MEMB      29              0.0000000000
      3310        29  OSM       H8F           -20.9740167488        2.7379075472        9.3056591513  MEMB      29              0.0000000000
      3311        29  OSM       H8G           -21.8405925690        3.2510123607       10.8047875284  MEMB      29              0.0000000000
      3312        29  OSM       C9F           -22.5376213274        1.2648563982        9.9685319344  MEMB      29              0.0000000000
      3313        29  OSM       H9F           -23.0900181420        1.0274561536       10.8896720593  MEMB      29              0.0000000000
      3314        29  OSM       C10F          -22.8086072266        0.6421292112        8.7890571547  MEMB      29              0.0000000000
      3315        29  OSM       H10F          -23.4663886693       -0.2313769709        8.6694315246  MEMB      29              0.0000000000
      3316        29  OSM       C11F          -22.1472885515        0.9275201171        7.5138805809  MEMB      29              0.0000000000
      3317        29  OSM       H11F          -21.9535466789       -0.0099908587        6.9500915267  MEMB      29              0.0000000000
      3318        29  OSM       H11G          -21.1476831647        1.4089980451        7.4565314569  MEMB      29              0.0000000000
      3319        29  OSM       C12F          -23.0159945298        1.8515037950        6.6480892284  MEMB      29              0.0000000000
      3320        29  OSM       H12F          -23.2539187559        2.7281024319        7.2878453891  MEMB      29              0.0000000000
      3321        29  OSM       H12G          -23.9528803133        1.2597703640        6.5679803462  MEMB      29              0.0000000000
      3322        29  OSM       C13F          -22.4675640690        2.3651357634        5.2781033185  MEMB      29              0.0000000000
      3323        29  OSM       H13F          -22.5694940111        1.5085024017        4.5780231110  MEMB      29              0.0000000000
      3324        29  OSM       H13G          -21.4153634272        2.7215814209        5.2899869477  MEMB      29              0.0000000000
      3325        29  OSM       C14F          -23.3385284944        3.4854092249        4.7597396458  MEMB      29              0.0000000000
      3326        29  OSM       H14F          -23.1790852426        4.3230223660        5.4719917459  MEMB      29              0.0000000000
      3327        29  OSM       H14G          -24.4140083178        3.2114564249        4.8108670243  MEMB      29              0.0000000000
      3328        29  OSM       C15F          -22.8069925995        3.9867885581        3.4032542684  MEMB      29              0.0000000000
      3329        29  OSM       H15F          -23.0411097102        3.1889913747        2.6663484048  MEMB      29              0.0000000000
      3330        29  OSM       H15G          -21.6962183853        4.0003095217        3.3853978440  MEMB      29              0.0000000000
      3331        29  OSM       C16F          -23.3887486371        5.3263097587        2.9581776752  MEMB      29              0.0000000000
      3332        29  OSM       H16F          -22.8993011645        6.2521806279        3.3290197924  MEMB      29              0.0000000000
      3333        29  OSM       H16G          -24.4103019546        5.2983716487        3.3940314659  MEMB      29              0.0000000000
      3334        29  OSM       C17F          -23.5204307506        5.3524829613        1.3874992889  MEMB      29              0.0000000000
      3335        29  OSM       H17F          -24.2673937027        6.0879519534        1.0194596575  MEMB      29              0.0000000000
      3336        29  OSM       H17G          -24.0314479515        4.4196136115        1.0666610002  MEMB      29              0.0000000000
      3337        29  OSM       C18F          -22.1870317775        5.3919415710        0.6240348795  MEMB      29              0.0000000000
      3338        29  OSM       H18F          -21.7733550434        4.3814377572        0.8291563732  MEMB      29              0.0000000000
      3339        29  OSM       H18G          -21.4536818709        6.1956618302        0.8488733001  MEMB      29              0.0000000000
      3340        29  OSM       H18H          -22.4762139070        5.3648832738       -0.4483275930  MEMB      29              0.0000000000
      3341        30  OSM       N              -1.4126309144       22.4032154503       22.5365889667  MEMB      30              0.0000000000
      3342        30  OSM       C15            -2.7176654401       23.2931739758       22.3657856906  MEMB      30              0.0000000000
      3343        30  OSM       H15A           -2.5178695109       24.1159598171       21.6953343956  MEMB      30              0.0000000000
      3344        30  OSM       H15B           -2.9506529173       23.7429295870       23.3196393325  MEMB      30              0.0000000000
      3345        30  OSM       H15C           -3.4766786401       22.6190712861       21.9971607482  MEMB      30              0.0000000000
      3346        30  OSM       C14            -0.1832707541       23.3494803429       22.7915771878  MEMB      30              0.0000000000
      3347        30  OSM       H14A           -0.3742472525       23.9290903305       23.6826330190  MEMB      30              0.0000000000
      3348        30  OSM       H14B           -0.0005429417       24.0302857973       21.9733386368  MEMB      30              0.0000000000
      3349        30  OSM       H14C            0.7026210970       22.7355205310       22.8597610994  MEMB      30              0.0000000000
      3350        30  OSM       C13            -1.5894852571       21.5696152692       23.7554079477  MEMB      30              0.0000000000
      3351        30  OSM       H13A           -2.4652250599       20.9476250085       23.6431231237  MEMB      30              0.0000000000
      3352        30  OSM       H13B           -1.6954524189       22.1909985802       24.6323650640  MEMB      30              0.0000000000
      3353        30  OSM       H13C           -0.7050797984       21.0022861435       24.0051371528  MEMB      30              0.0000000000
      3354        30  OSM       C12            -1.2508462485       21.5235473891       21.2753084469  MEMB      30              0.0000000000
      3355        30  OSM       H12A           -2.0728575464       20.8249893096       21.3274057493  MEMB      30              0.0000000000
      3356        30  OSM       H12B           -0.3431170290       20.9524035013       21.4026751138  MEMB      30              0.0000000000
      3357        30  OSM       C11            -1.0992923342       22.2680328626       19.8793186306  MEMB      30              0.0000000000
      3358        30  OSM       H11A           -1.9215651172       23.0069008312       19.7685816113  MEMB      30              0.0000000000
      3359        30  OSM       H11B           -1.1302471628       21.4907201138       19.0861304361  MEMB      30              0.0000000000
      3360        30  OSM       P               1.5785121410       22.2317324224       19.7321199166  MEMB      30              0.0000000000
      3361        30  OSM       O13             2.2998867178       22.7493874729       20.8898869618  MEMB      30              0.0000000000
      3362        30  OSM       O14             1.5166693693       20.7677398697       19.5898781680  MEMB      30              0.0000000000
      3363        30  OSM       O11             2.1726379609       22.9606169479       18.4815851864  MEMB      30              0.0000000000
      3364        30  OSM       O12             0.2093984681       22.9640564956       19.7025428972  MEMB      30              0.0000000000
      3365        30  OSM       C1S             2.2885905349       24.3163965954       18.4405352114  MEMB      30              0.0000000000
      3366        30  OSM       H1S             3.1988350307       24.6658364113       18.9731399469  MEMB      30              0.0000000000
      3367        30  OSM       H1T             1.3924671881       24.8684051398       18.7963026232  MEMB      30              0.0000000000
      3368        30  OSM       NF              1.5637958737       24.2381939365       16.0651863414  MEMB      30              0.0000000000
      3369        30  OSM       HNF             1.8135415710       23.3802394294       15.6229758711  MEMB      30              0.0000000000
      3370        30  OSM       C2S             2.5969719416       24.6872563918       16.9323363813  MEMB      30              0.0000000000
      3371        30  OSM       H2S             2.5691393738       25.7948889129       16.8505042340  MEMB      30              0.0000000000
      3372        30  OSM       C3S             3.9486485368       24.1415901156       16.4179826440  MEMB      30              0.0000000000
      3373        30  OSM       H3S             3.8588408081       23.0454517394       16.5752601681  MEMB      30              0.0000000000
      3374        30  OSM       O3              5.0110749949       24.6902955853       17.1403789380  MEMB      30              0.0000000000
      3375        30  OSM       HO3             4.6415764249       25.3717115237       17.7067207383  MEMB      30              0.0000000000
      3376        30  OSM       C4S             4.1427170280       24.4550458302       14.9450411819  MEMB      30              0.0000000000
      3377        30  OSM       H4S             3.8091816122       25.4459520551       14.6031950727  MEMB      30              0.0000000000
      3378        30  OSM       C5S             4.6026358740       23.5009024528       14.0966228304  MEMB      30              0.0000000000
      3379        30  OSM       H5S             4.6853754505       22.4505073300       14.4125715744  MEMB      30              0.0000000000
      3380        30  OSM       C6S             4.7855036372       23.6493588521       12.6379194261  MEMB      30              0.0000000000
      3381        30  OSM       H6S             5.8371938857       23.5075660063       12.3090370633  MEMB      30              0.0000000000
      3382        30  OSM       H6T             4.5058988591       24.7175769124       12.5152308191  MEMB      30              0.0000000000
      3383        30  OSM       C7S             3.8908032517       22.8038643983       11.6829571519  MEMB      30              0.0000000000
      3384        30  OSM       H7S             4.4688810090       22.8889238059       10.7380173812  MEMB      30              0.0000000000
      3385        30  OSM       H7T             2.8670133240       23.2330672888       11.6386795968  MEMB      30              0.0000000000
      3386        30  OSM       C8S             3.7828901216       21.3696060890       12.0408663551  MEMB      30              0.0000000000
      3387        30  OSM       H8S             2.9642171055       21.3101511507       12.7895719176  MEMB      30              0.0000000000
      3388        30  OSM       H8T             4.7492446208       21.1654453150       12.5495882434  MEMB      30              0.0000000000
      3389        30  OSM       C9S             3.5293238257       20.4965369410       10.8443758489  MEMB      30              0.0000000000
      3390        30  OSM       H9S             3.3603209946       19.4149930812       11.0341688763  MEMB      30              0.0000000000
      3391        30  OSM       H9T             4.3621981381       20.5240473499       10.1096068875  MEMB      30              0.0000000000
      3392        30  OSM       C10S            2.2749737038       20.8912846156       10.0833516747  MEMB      30              0.0000000000
      3393        30  OSM       H10S            2.2667338172       21.9659137268        9.8015262795  MEMB      30              0.0000000000
      3394        30  OSM       H10T            1.3637235499       20.6673691694       10.6781679457  MEMB      30              0.0000000000
      3395        30  OSM       C11S            1.9567529117       20.1870755573        8.7305189238  MEMB      30              0.0000000000
      3396        30  OSM       H11S            1.8113537127       19.1247715671        9.0215343522  MEMB      30              0.0000000000
      3397        30  OSM       H11T            2.9275682986       20.1968966329        8.1903877382  MEMB      30              0.0000000000
      3398        30  OSM       C12S            0.8637866330       20.7788989941        7.8062480823  MEMB      30              0.0000000000
      3399        30  OSM       H12S            0.8112129387       21.8764241880        7.9705508679  MEMB      30              0.0000000000
      3400        30  OSM       H12T           -0.1061478413       20.2466251366        7.9074040807  MEMB      30              0.0000000000
      3401        30  OSM       C13S            1.2812609041       20.6103602406        6.3088849745  MEMB      30              0.0000000000
      3402        30  OSM       H13S            1.2179669702       19.5237103217        6.0863843036  MEMB      30              0.0000000000
      3403        30  OSM       H13T            2.3593156411       20.8742179445        6.3588664286  MEMB      30              0.0000000000
      3404        30  OSM       C14S            0.5478153572       21.4853599487        5.2403673144  MEMB      30              0.0000000000
      3405        30  OSM       H14S            0.5606710978       22.5347466032        5.6049813770  MEMB      30              0.0000000000
      3406        30  OSM       H14T           -0.4812481049       21.0741182514        5.1614388682  MEMB      30              0.0000000000
      3407        30  OSM       C15S            1.1401752162       21.5675617626        3.8599831901  MEMB      30              0.0000000000
      3408        30  OSM       H15S            0.3813525988       21.6019218638        3.0492241157  MEMB      30              0.0000000000
      3409        30  OSM       H15T            1.6820620538       20.5977817368        3.8456219836  MEMB      30              0.0000000000
      3410        30  OSM       C16S            2.1506783346       22.7221927489        3.6708866395  MEMB      30              0.0000000000
      3411        30  OSM       H16S            3.1829829306       22.5296131460        4.0336285148  MEMB      30              0.0000000000
      3412        30  OSM       H16T            1.9524101800       23.7249637409        4.1061577315  MEMB      30              0.0000000000
      3413        30  OSM       C17S            2.5220919801       23.0470412446        2.1344204106  MEMB      30              0.0000000000
      3414        30  OSM       H17S            1.5399649844       23.3264468745        1.6966071413  MEMB      30              0.0000000000
      3415        30  OSM       H17T            2.6913207015       22.0523369805        1.6693966746  MEMB      30              0.0000000000
      3416        30  OSM       C18S            3.6403637859       23.9718596878        1.9234973178  MEMB      30              0.0000000000
      3417        30  OSM       H18S            4.5863678486       23.5209202502        2.2923492709  MEMB      30              0.0000000000
      3418        30  OSM       H18T            3.4806013711       24.9380174794        2.4482219374  MEMB      30              0.0000000000
      3419        30  OSM       H18U            3.8633640090       24.1919302972        0.8575900298  MEMB      30              0.0000000000
      3420        30  OSM       C1F             0.2409886044       24.5750063146       16.2202816141  MEMB      30              0.0000000000
      3421        30  OSM       OF             -0.0030962552       25.7150965624       16.5765671288  MEMB      30              0.0000000000
      3422        30  OSM       C2F            -0.7737009471       23.4926574782       15.9738901868  MEMB      30              0.0000000000
      3423        30  OSM       H2F            -1.3179755114       23.3090518702       16.9248765911  MEMB      30              0.0000000000
      3424        30  OSM       H2G            -0.2811393903       22.5362339536       15.6964769588  MEMB      30              0.0000000000
      3425        30  OSM       C3F            -1.8809886098       24.1180570460       15.0274757211  MEMB      30              0.0000000000
      3426        30  OSM       H3F            -2.3313731138       25.0232965060       15.4879278959  MEMB      30              0.0000000000
      3427        30  OSM       H3G            -2.6650983329       23.3344261729       14.9538843837  MEMB      30              0.0000000000
      3428        30  OSM       C4F            -1.4264618857       24.4570319589       13.5655338544  MEMB      30              0.0000000000
      3429        30  OSM       H4F            -0.6002448958       25.1997872351       13.5644397103  MEMB      30              0.0000000000
      3430        30  OSM       H4G            -2.2637814011       24.8920931605       12.9790706151  MEMB      30              0.0000000000
      3431        30  OSM       C5F            -0.7632956413       23.2537760017       12.8785556922  MEMB      30              0.0000000000
      3432        30  OSM       H5F            -1.1538808645       22.3029766121       13.3001537552  MEMB      30              0.0000000000
      3433        30  OSM       H5G             0.3166219338       23.1243637554       13.1051641965  MEMB      30              0.0000000000
      3434        30  OSM       C6F            -0.8688596485       23.1975906971       11.3703365641  MEMB      30              0.0000000000
      3435        30  OSM       H6F            -0.4090078889       22.2056918812       11.1728674402  MEMB      30              0.0000000000
      3436        30  OSM       H6G            -0.1905562023       23.9943151817       10.9968988372  MEMB      30              0.0000000000
      3437        30  OSM       C7F            -2.3291779013       23.2894408956       10.7311579065  MEMB      30              0.0000000000
      3438        30  OSM       H7F            -2.8393007091       24.2434649577       10.9840098361  MEMB      30              0.0000000000
      3439        30  OSM       H7G            -2.9298462017       22.4831725687       11.2038629606  MEMB      30              0.0000000000
      3440        30  OSM       C8F            -2.3008118546       22.9047429125        9.2187272513  MEMB      30              0.0000000000
      3441        30  OSM       H8F            -3.3126969570       22.5114154237        8.9827122691  MEMB      30              0.0000000000
      3442        30  OSM       H8G            -1.5275577387       22.1137808674        9.1149095899  MEMB      30              0.0000000000
      3443        30  OSM       C9F            -2.0137220472       24.1379791166        8.4973604490  MEMB      30              0.0000000000
      3444        30  OSM       H9F            -1.2033196666       24.7425789702        8.9306125717  MEMB      30              0.0000000000
      3445        30  OSM       C10F           -2.6528094926       24.5479820871        7.3957693246  MEMB      30              0.0000000000
      3446        30  OSM       H10F           -2.3776459464       25.4796014346        6.8796593598  MEMB      30              0.0000000000
      3447        30  OSM       C11F           -3.8471558867       23.9304893103        6.6545019428  MEMB      30              0.0000000000
      3448        30  OSM       H11F           -4.5787711767       24.7401449907        6.4458934626  MEMB      30              0.0000000000
      3449        30  OSM       H11G           -4.4661760927       23.2110153913        7.2319894904  MEMB      30              0.0000000000
      3450        30  OSM       C12F           -3.3672274396       23.4674556481        5.2188988611  MEMB      30              0.0000000000
      3451        30  OSM       H12F           -4.1155380744       22.6817188148        4.9802157301  MEMB      30              0.0000000000
      3452        30  OSM       H12G           -2.3828266658       23.0134669590        5.4621481408  MEMB      30              0.0000000000
      3453        30  OSM       C13F           -3.3752890378       24.6237852764        4.2090523857  MEMB      30              0.0000000000
      3454        30  OSM       H13F           -3.0866137033       25.5430645055        4.7621457810  MEMB      30              0.0000000000
      3455        30  OSM       H13G           -4.4254272957       24.5989863680        3.8472285992  MEMB      30              0.0000000000
      3456        30  OSM       C14F           -2.5408360504       24.4363273688        2.9615113839  MEMB      30              0.0000000000
      3457        30  OSM       H14F           -1.5048021428       24.3878214421        3.3597597746  MEMB      30              0.0000000000
      3458        30  OSM       H14G           -2.6288388346       25.2891430662        2.2549108455  MEMB      30              0.0000000000
      3459        30  OSM       C15F           -2.8122791769       23.2133519415        2.1139176330  MEMB      30              0.0000000000
      3460        30  OSM       H15F           -3.7792025957       23.2703036528        1.5697332539  MEMB      30              0.0000000000
      3461        30  OSM       H15G           -2.7934674858       22.2727680907        2.7049082307  MEMB      30              0.0000000000
      3462        30  OSM       C16F           -1.7064442576       22.9683364062        1.0292070830  MEMB      30              0.0000000000
      3463        30  OSM       H16F           -1.6724986223       21.8807188790        0.8050265146  MEMB      30              0.0000000000
      3464        30  OSM       H16G           -0.7188313800       23.1501174445        1.5044938653  MEMB      30              0.0000000000
      3465        30  OSM       C17F           -1.7833824621       23.9122157449       -0.2005954258  MEMB      30              0.0000000000
      3466        30  OSM       H17F           -0.8384548293       23.7033613450       -0.7463172854  MEMB      30              0.0000000000
      3467        30  OSM       H17G           -1.7303769195       24.9954233074        0.0405955027  MEMB      30              0.0000000000
      3468        30  OSM       C18F           -2.9852332557       23.7246738897       -1.1470704970  MEMB      30              0.0000000000
      3469        30  OSM       H18F           -2.7853090701       24.2487416344       -2.1060829935  MEMB      30              0.0000000000
      3470        30  OSM       H18G           -3.9651121895       24.0532995078       -0.7394388258  MEMB      30              0.0000000000
      3471        30  OSM       H18H           -3.0890837924       22.6213158162       -1.2254117491  MEMB      30              0.0000000000
      3472        31  SAPS      N             -20.0033937342       13.0285520882       21.8712983033  MEMB      31              0.0000000000
      3473        31  SAPS      HN1           -20.4185215606       12.2732553398       21.2892369754  MEMB      31              0.0000000000
      3474        31  SAPS      HN2           -19.4228822270       12.5726542851       22.6039398100  MEMB      31              0.0000000000
      3475        31  SAPS      HN3           -20.8388513089       13.4111682732       22.3583460849  MEMB      31              0.0000000000
      3476        31  SAPS      C12           -19.0578588259       13.8403340527       21.0042399466  MEMB      31              0.0000000000
      3477        31  SAPS      H12A          -19.6191296592       14.2192172867       20.1629181386  MEMB      31              0.0000000000
      3478        31  SAPS      C13           -18.3997763358       15.1341014995       21.7213528276  MEMB      31              0.0000000000
      3479        31  SAPS      O13A          -18.5522171221       15.3579375482       22.9380573664  MEMB      31              0.0000000000
      3480        31  SAPS      O13B          -17.6182619309       15.9031893660       21.0037562435  MEMB      31              0.0000000000
      3481        31  SAPS      C11           -17.9526687990       12.9235097879       20.4641365735  MEMB      31              0.0000000000
      3482        31  SAPS      H11A          -17.3195403506       12.4928403569       21.2691167326  MEMB      31              0.0000000000
      3483        31  SAPS      H11B          -17.1684140514       13.5213053960       19.9523692601  MEMB      31              0.0000000000
      3484        31  SAPS      P             -18.3212521315       11.6657199950       18.1624950369  MEMB      31              0.0000000000
      3485        31  SAPS      O13           -17.0228515413       12.2564259314       17.7743455920  MEMB      31              0.0000000000
      3486        31  SAPS      O14           -18.6650083882       10.2409728302       17.8903197286  MEMB      31              0.0000000000
      3487        31  SAPS      O12           -18.5070678625       11.7766662786       19.7138087915  MEMB      31              0.0000000000
      3488        31  SAPS      O11           -19.4188559301       12.5500136197       17.4561895550  MEMB      31              0.0000000000
      3489        31  SAPS      C1            -20.7886612707       12.5239587928       17.7635020403  MEMB      31              0.0000000000
      3490        31  SAPS      HA            -21.1335370197       11.5670840066       17.3165430761  MEMB      31              0.0000000000
      3491        31  SAPS      HB            -21.0287753022       12.5291159144       18.8482322910  MEMB      31              0.0000000000
      3492        31  SAPS      C2            -21.5066509833       13.7029295268       17.0613535349  MEMB      31              0.0000000000
      3493        31  SAPS      HS            -22.5905300032       13.4600951527       17.0849899321  MEMB      31              0.0000000000
      3494        31  SAPS      O21           -21.0980144143       13.9186187848       15.7146165859  MEMB      31              0.0000000000
      3495        31  SAPS      C21           -21.3408022990       13.0049478918       14.8034700720  MEMB      31              0.0000000000
      3496        31  SAPS      O22           -21.8689460655       11.9511989004       14.9969535853  MEMB      31              0.0000000000
      3497        31  SAPS      C22           -20.9836650408       13.6491311840       13.4310682742  MEMB      31              0.0000000000
      3498        31  SAPS      H2R           -21.7587436931       13.6492168625       12.6350948046  MEMB      31              0.0000000000
      3499        31  SAPS      H2S           -20.9234820532       14.7561969423       13.5025137042  MEMB      31              0.0000000000
      3500        31  SAPS      C3            -21.3738646107       15.0260011893       17.9361682123  MEMB      31              0.0000000000
      3501        31  SAPS      HX            -21.8127715723       14.8613983279       18.9434355797  MEMB      31              0.0000000000
      3502        31  SAPS      HY            -21.9181288236       15.8175265203       17.3779699389  MEMB      31              0.0000000000
      3503        31  SAPS      O31           -19.9941328542       15.4268863106       18.0605445691  MEMB      31              0.0000000000
      3504        31  SAPS      C31           -19.4387853661       16.2625099742       17.2288270268  MEMB      31              0.0000000000
      3505        31  SAPS      O32           -20.0398200497       16.7965955580       16.3451251553  MEMB      31              0.0000000000
      3506        31  SAPS      C32           -17.9678272041       16.5180711695       17.5867422232  MEMB      31              0.0000000000
      3507        31  SAPS      H2X           -17.5908121365       15.6540541471       18.1746665657  MEMB      31              0.0000000000
      3508        31  SAPS      H2Y           -17.7947053648       17.4942135111       18.0882359055  MEMB      31              0.0000000000
      3509        31  SAPS      C23           -19.5907559645       13.2877366168       12.8002400800  MEMB      31              0.0000000000
      3510        31  SAPS      H3R           -18.7883498984       13.6477352483       13.4791117641  MEMB      31              0.0000000000
      3511        31  SAPS      H3S           -19.4592665368       13.7687172387       11.8074215844  MEMB      31              0.0000000000
      3512        31  SAPS      C24           -19.3716695450       11.7683455401       12.6740334662  MEMB      31              0.0000000000
      3513        31  SAPS      H4R           -20.0868068251       11.5219487657       11.8602835917  MEMB      31              0.0000000000
      3514        31  SAPS      H4S           -19.6923536691       11.2865051407       13.6223540356  MEMB      31              0.0000000000
      3515        31  SAPS      C25           -18.1335650290       11.0760529087       12.3827230292  MEMB      31              0.0000000000
      3516        31  SAPS      H5R           -17.7084451421       10.6086282819       13.2831604102  MEMB      31              0.0000000000
      3517        31  SAPS      C26           -17.5487373856       10.8798342592       11.1757919017  MEMB      31              0.0000000000
      3518        31  SAPS      H6R           -16.6674788474       10.2218947816       11.1981311963  MEMB      31              0.0000000000
      3519        31  SAPS      C27           -17.9519836852       11.3736009825        9.8441335425  MEMB      31              0.0000000000
      3520        31  SAPS      H7R           -18.3746627669       12.3782510612       10.0594048645  MEMB      31              0.0000000000
      3521        31  SAPS      H7S           -18.7960342298       10.7708387515        9.4459166358  MEMB      31              0.0000000000
      3522        31  SAPS      C28           -16.9939075378       11.5062269654        8.6775671319  MEMB      31              0.0000000000
      3523        31  SAPS      H8R           -16.3314848373       12.3592382715        8.8862969389  MEMB      31              0.0000000000
      3524        31  SAPS      C29           -16.9972146854       10.8284620574        7.5190757701  MEMB      31              0.0000000000
      3525        31  SAPS      H9R           -16.1866039713       10.9385385167        6.7836887232  MEMB      31              0.0000000000
      3526        31  SAPS      C210          -17.9493753467        9.7113651288        7.0815530594  MEMB      31              0.0000000000
      3527        31  SAPS      H10R          -18.4831603621        9.9915208998        6.1483290274  MEMB      31              0.0000000000
      3528        31  SAPS      H10S          -18.7150175239        9.5268963070        7.8651887673  MEMB      31              0.0000000000
      3529        31  SAPS      C211          -17.2577932693        8.3661116573        6.7278851070  MEMB      31              0.0000000000
      3530        31  SAPS      H11R          -17.0923587577        7.6103492210        7.5098410402  MEMB      31              0.0000000000
      3531        31  SAPS      C212          -16.9804724617        7.8515538624        5.4789648450  MEMB      31              0.0000000000
      3532        31  SAPS      H12R          -16.4188962296        6.9170022044        5.6247216696  MEMB      31              0.0000000000
      3533        31  SAPS      C213          -17.2952955520        8.4732534735        4.1602995404  MEMB      31              0.0000000000
      3534        31  SAPS      H13R          -17.5326224430        9.5554376026        4.0773872419  MEMB      31              0.0000000000
      3535        31  SAPS      H13S          -18.1348528770        7.9128715001        3.6961482227  MEMB      31              0.0000000000
      3536        31  SAPS      C214          -16.1080531997        8.1046009827        3.3735954162  MEMB      31              0.0000000000
      3537        31  SAPS      H14R          -15.2605865252        7.5406159545        3.7903936294  MEMB      31              0.0000000000
      3538        31  SAPS      C215          -15.9478987580        8.4614077678        2.0683897172  MEMB      31              0.0000000000
      3539        31  SAPS      H15R          -15.0746045786        8.0206704754        1.5652896524  MEMB      31              0.0000000000
      3540        31  SAPS      C216          -16.8274841744        9.3176260820        1.1778274610  MEMB      31              0.0000000000
      3541        31  SAPS      H16R          -16.2753740690        9.7113546380        0.2977854692  MEMB      31              0.0000000000
      3542        31  SAPS      H16S          -17.0378109156       10.3069717620        1.6374776031  MEMB      31              0.0000000000
      3543        31  SAPS      C217          -18.0538740509        8.7208748232        0.7075711866  MEMB      31              0.0000000000
      3544        31  SAPS      H17R          -18.4413697975        9.3405710983       -0.1291761503  MEMB      31              0.0000000000
      3545        31  SAPS      H17S          -18.7245915643        8.8395387348        1.5852816962  MEMB      31              0.0000000000
      3546        31  SAPS      C218          -18.0311510143        7.2472243195        0.2101654717  MEMB      31              0.0000000000
      3547        31  SAPS      H18R          -17.4467056311        6.6645191676        0.9539390213  MEMB      31              0.0000000000
      3548        31  SAPS      H18S          -17.5047098384        7.0813217286       -0.7540205038  MEMB      31              0.0000000000
      3549        31  SAPS      C219          -19.4623910855        6.6913661130        0.0926983124  MEMB      31              0.0000000000
      3550        31  SAPS      H19R          -19.9647368957        6.6210551530        1.0811437938  MEMB      31              0.0000000000
      3551        31  SAPS      H19S          -19.3938165310        5.6406503782       -0.2617242157  MEMB      31              0.0000000000
      3552        31  SAPS      C220          -20.2831460569        7.5535514025       -0.9522055221  MEMB      31              0.0000000000
      3553        31  SAPS      H20R          -20.7004015130        8.4839096383       -0.5110127073  MEMB      31              0.0000000000
      3554        31  SAPS      H20S          -21.1426625330        6.8647500975       -1.0974820947  MEMB      31              0.0000000000
      3555        31  SAPS      H20T          -19.7607974621        7.6307613228       -1.9297083112  MEMB      31              0.0000000000
      3556        31  SAPS      C33           -17.0180635900       16.5697319144       16.3720833401  MEMB      31              0.0000000000
      3557        31  SAPS      H3X           -16.0597142705       16.9042733215       16.8237129097  MEMB      31              0.0000000000
      3558        31  SAPS      H3Y           -17.4118267512       17.3052332796       15.6383876667  MEMB      31              0.0000000000
      3559        31  SAPS      C34           -16.7860954061       15.2223480928       15.6908792244  MEMB      31              0.0000000000
      3560        31  SAPS      H4X           -17.7667328735       14.8662159344       15.3089883091  MEMB      31              0.0000000000
      3561        31  SAPS      H4Y           -16.3729625541       14.4197048896       16.3384949547  MEMB      31              0.0000000000
      3562        31  SAPS      C35           -15.7969727647       15.2124619578       14.4989715890  MEMB      31              0.0000000000
      3563        31  SAPS      H5X           -15.5289026102       14.1414738261       14.3746977881  MEMB      31              0.0000000000
      3564        31  SAPS      H5Y           -14.8919168227       15.8364320281       14.6597682856  MEMB      31              0.0000000000
      3565        31  SAPS      C36           -16.4774893747       15.6704579729       13.2209646855  MEMB      31              0.0000000000
      3566        31  SAPS      H6X           -16.7132325408       16.7501242075       13.3352739790  MEMB      31              0.0000000000
      3567        31  SAPS      H6Y           -17.4637557531       15.1956855216       13.0307253521  MEMB      31              0.0000000000
      3568        31  SAPS      C37           -15.5342689085       15.7289460037       11.9961807404  MEMB      31              0.0000000000
      3569        31  SAPS      H7X           -15.1375825967       14.7419587857       11.6755296369  MEMB      31              0.0000000000
      3570        31  SAPS      H7Y           -14.5294070666       16.1763753877       12.1523243985  MEMB      31              0.0000000000
      3571        31  SAPS      C38           -16.1586773730       16.2182258661       10.7010060238  MEMB      31              0.0000000000
      3572        31  SAPS      H8X           -15.3311105034       16.2422708770        9.9601450318  MEMB      31              0.0000000000
      3573        31  SAPS      H8Y           -16.3943900678       17.2803505425       10.9260650661  MEMB      31              0.0000000000
      3574        31  SAPS      C39           -17.3822832119       15.4154356164       10.1589441150  MEMB      31              0.0000000000
      3575        31  SAPS      H9X           -18.1215758452       15.3256934157       10.9833912718  MEMB      31              0.0000000000
      3576        31  SAPS      H9Y           -17.1113449924       14.3539023284        9.9743889730  MEMB      31              0.0000000000
      3577        31  SAPS      C310          -18.0852700663       16.0116544887        8.9604604389  MEMB      31              0.0000000000
      3578        31  SAPS      H10X          -17.3798626448       16.5639437159        8.3034231577  MEMB      31              0.0000000000
      3579        31  SAPS      H10Y          -18.8030051044       16.8246318542        9.2018019445  MEMB      31              0.0000000000
      3580        31  SAPS      C311          -18.7239620408       14.9218631821        8.1286767938  MEMB      31              0.0000000000
      3581        31  SAPS      H11X          -19.4936029824       14.4155084585        8.7496270102  MEMB      31              0.0000000000
      3582        31  SAPS      H11Y          -17.9331215989       14.1764958785        7.8977655882  MEMB      31              0.0000000000
      3583        31  SAPS      C312          -19.3294755407       15.4569819303        6.8390098149  MEMB      31              0.0000000000
      3584        31  SAPS      H12X          -18.5162835602       15.8819325455        6.2125464614  MEMB      31              0.0000000000
      3585        31  SAPS      H12Y          -20.1830567797       16.1000030624        7.1427284327  MEMB      31              0.0000000000
      3586        31  SAPS      C313          -20.0101268443       14.4119262779        5.9375152771  MEMB      31              0.0000000000
      3587        31  SAPS      H13X          -20.3842914041       14.9078713829        5.0164506550  MEMB      31              0.0000000000
      3588        31  SAPS      H13Y          -20.9052857720       13.9824950942        6.4361136874  MEMB      31              0.0000000000
      3589        31  SAPS      C314          -19.1099928592       13.3306650888        5.4936167285  MEMB      31              0.0000000000
      3590        31  SAPS      H14X          -18.8035871904       12.8313466041        6.4376072232  MEMB      31              0.0000000000
      3591        31  SAPS      H14Y          -18.1278185394       13.5289269256        5.0136724822  MEMB      31              0.0000000000
      3592        31  SAPS      C315          -19.8096533362       12.2749873860        4.5802495331  MEMB      31              0.0000000000
      3593        31  SAPS      H15X          -20.8259926452       11.9196636264        4.8543307769  MEMB      31              0.0000000000
      3594        31  SAPS      H15Y          -19.2440836603       11.3194483949        4.5428705456  MEMB      31              0.0000000000
      3595        31  SAPS      C316          -19.8932646276       12.7912935676        3.1205562309  MEMB      31              0.0000000000
      3596        31  SAPS      H16X          -19.1216477888       13.5717765426        2.9480027775  MEMB      31              0.0000000000
      3597        31  SAPS      H16Y          -20.9006504483       13.2537455816        3.0455028336  MEMB      31              0.0000000000
      3598        31  SAPS      C317          -19.8030094174       11.6753483701        2.0945050796  MEMB      31              0.0000000000
      3599        31  SAPS      H17X          -18.8495052169       11.1385982131        2.2869888771  MEMB      31              0.0000000000
      3600        31  SAPS      H17Y          -19.6571929117       12.1110854215        1.0829766267  MEMB      31              0.0000000000
      3601        31  SAPS      C318          -20.8762714395       10.5861321856        2.0288445834  MEMB      31              0.0000000000
      3602        31  SAPS      H18X          -20.3991081651        9.8232975660        1.3771386893  MEMB      31              0.0000000000
      3603        31  SAPS      H18Y          -21.7760766910       11.1069649432        1.6371749047  MEMB      31              0.0000000000
      3604        31  SAPS      H18Z          -21.0672148714       10.1082208660        3.0134567018  MEMB      31              0.0000000000
      3605        32  SLPC      N              -7.0211980908       20.0614376347       15.6879488190  MEMB      32              0.0000000000
      3606        32  SLPC      C13            -8.5043295381       19.6484174573       15.7372068914  MEMB      32              0.0000000000
      3607        32  SLPC      H13A           -8.6365180929       18.7228350676       16.2777838584  MEMB      32              0.0000000000
      3608        32  SLPC      H13B           -8.9929272254       20.5145997111       16.1583962914  MEMB      32              0.0000000000
      3609        32  SLPC      H13C           -8.8986683305       19.5414801867       14.7374762362  MEMB      32              0.0000000000
      3610        32  SLPC      C14            -6.7979073257       21.2911053639       14.8141368924  MEMB      32              0.0000000000
      3611        32  SLPC      H14A           -7.1506068209       21.1838999757       13.7989965672  MEMB      32              0.0000000000
      3612        32  SLPC      H14B           -7.4562744374       22.0569073857       15.1968900475  MEMB      32              0.0000000000
      3613        32  SLPC      H14C           -5.7863998462       21.6662279691       14.7637811640  MEMB      32              0.0000000000
      3614        32  SLPC      C15            -6.2766900778       18.9585007564       15.1566261343  MEMB      32              0.0000000000
      3615        32  SLPC      H15A           -6.6345841229       18.8156378679       14.1477149491  MEMB      32              0.0000000000
      3616        32  SLPC      H15B           -5.2141887493       19.1390001091       15.0865498687  MEMB      32              0.0000000000
      3617        32  SLPC      H15C           -6.4224450008       18.0333314806       15.6944156649  MEMB      32              0.0000000000
      3618        32  SLPC      C12            -6.6312491251       20.2324437464       17.1878114873  MEMB      32              0.0000000000
      3619        32  SLPC      H12A           -5.6335503461       20.6413076399       17.2496783126  MEMB      32              0.0000000000
      3620        32  SLPC      H12B           -6.5582420418       19.2509656235       17.6325257011  MEMB      32              0.0000000000
      3621        32  SLPC      C11            -7.4705954308       21.1748384782       18.0204618103  MEMB      32              0.0000000000
      3622        32  SLPC      H11A           -6.9222810798       21.3238668158       18.9751675332  MEMB      32              0.0000000000
      3623        32  SLPC      H11B           -8.4523878286       20.7503727506       18.3208509293  MEMB      32              0.0000000000
      3624        32  SLPC      P              -8.5893759341       23.5061532256       18.1495958383  MEMB      32              0.0000000000
      3625        32  SLPC      O13            -9.9406042700       23.3712876567       17.6432919735  MEMB      32              0.0000000000
      3626        32  SLPC      O14            -8.4234820100       23.4530320611       19.6187234899  MEMB      32              0.0000000000
      3627        32  SLPC      O12            -7.6381656496       22.3997594961       17.4217607590  MEMB      32              0.0000000000
      3628        32  SLPC      O11            -7.9068450152       24.7955659274       17.5624358998  MEMB      32              0.0000000000
      3629        32  SLPC      C1             -6.9069239624       24.8969071466       16.5184100617  MEMB      32              0.0000000000
      3630        32  SLPC      HA             -6.1119523603       25.5823060213       16.8825108315  MEMB      32              0.0000000000
      3631        32  SLPC      HB             -6.3946846104       23.9219628832       16.3720693517  MEMB      32              0.0000000000
      3632        32  SLPC      C2             -7.5454153743       25.4164724011       15.2398429630  MEMB      32              0.0000000000
      3633        32  SLPC      HS             -8.1114445469       26.3222000109       15.5457667683  MEMB      32              0.0000000000
      3634        32  SLPC      O21            -8.4613961533       24.3535723631       14.7435641087  MEMB      32              0.0000000000
      3635        32  SLPC      C21            -9.7338165460       24.6543315189       14.6306840314  MEMB      32              0.0000000000
      3636        32  SLPC      O22           -10.2058056363       25.7657540972       14.8087778920  MEMB      32              0.0000000000
      3637        32  SLPC      C22           -10.5170131266       23.4089294748       14.2889339894  MEMB      32              0.0000000000
      3638        32  SLPC      H2R            -9.9069828926       22.6149632890       13.8074757072  MEMB      32              0.0000000000
      3639        32  SLPC      H2S           -10.9387216566       23.0831540474       15.2637945412  MEMB      32              0.0000000000
      3640        32  SLPC      C3             -6.6305831891       25.7817281329       14.0877011500  MEMB      32              0.0000000000
      3641        32  SLPC      HX             -5.9281630692       26.5403197312       14.4944752441  MEMB      32              0.0000000000
      3642        32  SLPC      HY             -7.2043250395       26.2169549675       13.2416996837  MEMB      32              0.0000000000
      3643        32  SLPC      O31            -5.8576089563       24.6034320601       13.7187578647  MEMB      32              0.0000000000
      3644        32  SLPC      C31            -6.0975630144       23.9741839900       12.5174128194  MEMB      32              0.0000000000
      3645        32  SLPC      O32            -6.9535144845       24.2186148262       11.7268039367  MEMB      32              0.0000000000
      3646        32  SLPC      C32            -4.8650349230       23.1238190343       12.1919011098  MEMB      32              0.0000000000
      3647        32  SLPC      H2X            -4.6160261101       22.6145862608       13.1474100454  MEMB      32              0.0000000000
      3648        32  SLPC      H2Y            -3.9231775432       23.6967392172       12.0541037658  MEMB      32              0.0000000000
      3649        32  SLPC      C23           -11.6049801996       23.7938415674       13.2311473490  MEMB      32              0.0000000000
      3650        32  SLPC      H3R           -11.0313207265       24.3402188294       12.4522330595  MEMB      32              0.0000000000
      3651        32  SLPC      H3S           -12.3913599224       24.4516543999       13.6591781490  MEMB      32              0.0000000000
      3652        32  SLPC      C24           -12.2919057177       22.6272455575       12.4984328229  MEMB      32              0.0000000000
      3653        32  SLPC      H4R           -13.0791806813       23.0948726214       11.8692718182  MEMB      32              0.0000000000
      3654        32  SLPC      H4S           -12.9126329108       21.9603031617       13.1342053763  MEMB      32              0.0000000000
      3655        32  SLPC      C25           -11.4331673970       21.7661087458       11.5482994218  MEMB      32              0.0000000000
      3656        32  SLPC      H5R           -12.1250443895       21.2464648227       10.8514510719  MEMB      32              0.0000000000
      3657        32  SLPC      H5S           -10.9813299315       21.0373037740       12.2547035564  MEMB      32              0.0000000000
      3658        32  SLPC      C26           -10.4068448248       22.4957609711       10.7719942212  MEMB      32              0.0000000000
      3659        32  SLPC      H6R            -9.7551041758       23.1085227786       11.4308405420  MEMB      32              0.0000000000
      3660        32  SLPC      H6S           -10.8311420383       23.2148839953       10.0390857772  MEMB      32              0.0000000000
      3661        32  SLPC      C27            -9.5127082872       21.4858690021        9.9867262009  MEMB      32              0.0000000000
      3662        32  SLPC      H7R           -10.2117108084       20.6975647204        9.6341744314  MEMB      32              0.0000000000
      3663        32  SLPC      H7S            -8.8063888750       21.0482815039       10.7242566317  MEMB      32              0.0000000000
      3664        32  SLPC      C28            -8.7914441080       21.9943589360        8.6844330337  MEMB      32              0.0000000000
      3665        32  SLPC      H8R            -7.9174770944       21.3157877998        8.5842140062  MEMB      32              0.0000000000
      3666        32  SLPC      H8S            -8.3488913829       22.9924056626        8.8902743741  MEMB      32              0.0000000000
      3667        32  SLPC      C29            -9.6715215720       21.9958320689        7.4938509254  MEMB      32              0.0000000000
      3668        32  SLPC      H9R           -10.3282768674       22.8766210443        7.4401553847  MEMB      32              0.0000000000
      3669        32  SLPC      C210           -9.7122397470       21.1898998349        6.4411305878  MEMB      32              0.0000000000
      3670        32  SLPC      H10R          -10.5097181073       21.3925948977        5.7111003548  MEMB      32              0.0000000000
      3671        32  SLPC      C211           -8.8186697936       19.9973741152        6.2374694954  MEMB      32              0.0000000000
      3672        32  SLPC      H11R           -8.6746349632       19.4724303061        7.2059779589  MEMB      32              0.0000000000
      3673        32  SLPC      H11S           -7.8066951225       20.4105869487        6.0387641200  MEMB      32              0.0000000000
      3674        32  SLPC      C212           -9.1199131597       18.8265013704        5.3030501787  MEMB      32              0.0000000000
      3675        32  SLPC      H12R           -9.4856623795       17.8819513893        5.7320642662  MEMB      32              0.0000000000
      3676        32  SLPC      C213           -8.9802931996       18.7667033205        3.9722133958  MEMB      32              0.0000000000
      3677        32  SLPC      H13R           -9.1911814377       17.8652493974        3.3781542588  MEMB      32              0.0000000000
      3678        32  SLPC      C214           -8.4839315452       19.8304242130        3.0058789879  MEMB      32              0.0000000000
      3679        32  SLPC      H14R           -7.9425558503       20.5731494971        3.6300520248  MEMB      32              0.0000000000
      3680        32  SLPC      H14S           -9.3419128284       20.2111285621        2.4115273068  MEMB      32              0.0000000000
      3681        32  SLPC      C215           -7.4487196911       19.1987304974        2.0344401407  MEMB      32              0.0000000000
      3682        32  SLPC      H15R           -7.9081543080       18.5516788352        1.2569019023  MEMB      32              0.0000000000
      3683        32  SLPC      H15S           -6.6681742027       18.5886946173        2.5373572009  MEMB      32              0.0000000000
      3684        32  SLPC      C216           -6.6657455183       20.3623666841        1.2896123360  MEMB      32              0.0000000000
      3685        32  SLPC      H16R           -6.3396983416       21.1161940656        2.0377829449  MEMB      32              0.0000000000
      3686        32  SLPC      H16S           -7.3526887721       20.8281815667        0.5510690033  MEMB      32              0.0000000000
      3687        32  SLPC      C217           -5.4076615954       20.0248645654        0.4790293206  MEMB      32              0.0000000000
      3688        32  SLPC      H17R           -5.1211689137       20.8408332778       -0.2184235237  MEMB      32              0.0000000000
      3689        32  SLPC      H17S           -5.6136989914       19.0515904787       -0.0155499970  MEMB      32              0.0000000000
      3690        32  SLPC      C218           -4.2079857089       19.9550943876        1.4394234659  MEMB      32              0.0000000000
      3691        32  SLPC      H18R           -4.0410831242       20.9972654516        1.7863292980  MEMB      32              0.0000000000
      3692        32  SLPC      H18S           -3.3271800846       19.7900659100        0.7827123681  MEMB      32              0.0000000000
      3693        32  SLPC      H18T           -4.2847726470       19.1290338522        2.1783742649  MEMB      32              0.0000000000
      3694        32  SLPC      C33            -5.2071283601       22.1952901240       10.9835537381  MEMB      32              0.0000000000
      3695        32  SLPC      H3X            -6.2431553085       21.8371682012       11.1644355263  MEMB      32              0.0000000000
      3696        32  SLPC      H3Y            -4.6023888497       21.2641352312       11.0230704709  MEMB      32              0.0000000000
      3697        32  SLPC      C34            -5.0728085366       22.8207551487        9.5936934978  MEMB      32              0.0000000000
      3698        32  SLPC      H4X            -5.5969560637       23.7993969518        9.5506756608  MEMB      32              0.0000000000
      3699        32  SLPC      H4Y            -5.5102900704       22.1222140699        8.8487294367  MEMB      32              0.0000000000
      3700        32  SLPC      C35            -3.5872537930       23.1043789364        9.3235588835  MEMB      32              0.0000000000
      3701        32  SLPC      H5X            -3.0603592217       22.4193525433       10.0217288141  MEMB      32              0.0000000000
      3702        32  SLPC      H5Y            -3.2971476041       24.1137593830        9.6859262717  MEMB      32              0.0000000000
      3703        32  SLPC      C36            -3.1461311745       22.8080326058        7.8836479457  MEMB      32              0.0000000000
      3704        32  SLPC      H6X            -3.5294133512       21.7975358625        7.6261364078  MEMB      32              0.0000000000
      3705        32  SLPC      H6Y            -2.0536254797       22.6476103966        7.7611022823  MEMB      32              0.0000000000
      3706        32  SLPC      C37            -3.5481060577       23.9041001671        6.8933672151  MEMB      32              0.0000000000
      3707        32  SLPC      H7X            -2.9162604283       24.7806331643        7.1517894956  MEMB      32              0.0000000000
      3708        32  SLPC      H7Y            -4.6325943101       24.0733263305        7.0653230461  MEMB      32              0.0000000000
      3709        32  SLPC      C38            -3.2558341973       23.5358865674        5.4365276436  MEMB      32              0.0000000000
      3710        32  SLPC      H8X            -2.1623847735       23.4250822238        5.2740099096  MEMB      32              0.0000000000
      3711        32  SLPC      H8Y            -3.6305197702       24.3177956196        4.7418700828  MEMB      32              0.0000000000
      3712        32  SLPC      C39            -3.9813447524       22.3019897322        4.9829412716  MEMB      32              0.0000000000
      3713        32  SLPC      H9X            -3.5813556758       21.3839794956        5.4641756510  MEMB      32              0.0000000000
      3714        32  SLPC      H9Y            -3.7314770790       22.2418431574        3.9020754131  MEMB      32              0.0000000000
      3715        32  SLPC      C310           -5.5116271766       22.4413874196        5.3333570518  MEMB      32              0.0000000000
      3716        32  SLPC      H10X           -5.6948811286       22.4575228758        6.4290206497  MEMB      32              0.0000000000
      3717        32  SLPC      H10Y           -5.9957009838       21.4766647061        5.0701013059  MEMB      32              0.0000000000
      3718        32  SLPC      C311           -6.2824942892       23.6267866387        4.6177751393  MEMB      32              0.0000000000
      3719        32  SLPC      H11X           -6.2270652272       23.3647976129        3.5395318154  MEMB      32              0.0000000000
      3720        32  SLPC      H11Y           -5.6506731505       24.5039691211        4.8740446195  MEMB      32              0.0000000000
      3721        32  SLPC      C312           -7.7442875609       23.8585901157        5.0865085900  MEMB      32              0.0000000000
      3722        32  SLPC      H12X           -7.7717819654       24.1193744392        6.1661188807  MEMB      32              0.0000000000
      3723        32  SLPC      H12Y           -8.3040211277       22.9045890533        4.9820987349  MEMB      32              0.0000000000
      3724        32  SLPC      C313           -8.4662868550       24.9845451598        4.2371224959  MEMB      32              0.0000000000
      3725        32  SLPC      H13X           -7.9127878485       24.9837022725        3.2738168620  MEMB      32              0.0000000000
      3726        32  SLPC      H13Y           -8.4055757367       25.9561612368        4.7724704166  MEMB      32              0.0000000000
      3727        32  SLPC      C314           -9.9807523489       24.7880767735        4.0149719568  MEMB      32              0.0000000000
      3728        32  SLPC      H14X          -10.5881350957       25.7107707802        3.8964681212  MEMB      32              0.0000000000
      3729        32  SLPC      H14Y          -10.2374152824       24.2350454736        4.9437353510  MEMB      32              0.0000000000
      3730        32  SLPC      C315          -10.3080454936       23.8320585175        2.8871652092  MEMB      32              0.0000000000
      3731        32  SLPC      H15X          -11.3812380514       23.5523745113        2.9531623873  MEMB      32              0.0000000000
      3732        32  SLPC      H15Y           -9.7849648568       22.8656774853        3.0509191643  MEMB      32              0.0000000000
      3733        32  SLPC      C316          -10.0741486822       24.5505795957        1.4451629410  MEMB      32              0.0000000000
      3734        32  SLPC      H16X          -10.5416646616       25.5582170398        1.4247469484  MEMB      32              0.0000000000
      3735        32  SLPC      H16Y          -10.7986773737       24.0148645344        0.7952484601  MEMB      32              0.0000000000
      3736        32  SLPC      C317           -8.6273597766       24.3565379051        0.9296018134  MEMB      32              0.0000000000
      3737        32  SLPC      H17X           -8.1854840793       23.4445939203        1.3850418246  MEMB      32              0.0000000000
      3738        32  SLPC      H17Y           -8.0521429834       25.3040438366        1.0049608652  MEMB      32              0.0000000000
      3739        32  SLPC      C318           -8.6538832987       24.2283118031       -0.6028107836  MEMB      32              0.0000000000
      3740        32  SLPC      H18X           -9.2342276720       25.0502633154       -1.0738920401  MEMB      32              0.0000000000
      3741        32  SLPC      H18Y           -9.1430661772       23.2891646428       -0.9390001334  MEMB      32              0.0000000000
      3742        32  SLPC      H18Z           -7.5696728174       24.1997377776       -0.8436266596  MEMB      32              0.0000000000
      3743        33  SOPE      N              13.2124494343      -18.9557712862       23.4905069897  MEMB      33              0.0000000000
      3744        33  SOPE      HN1            12.8142258994      -19.5033369971       24.2799307527  MEMB      33              0.0000000000
      3745        33  SOPE      HN2            13.9539159103      -18.3310402947       23.8667230608  MEMB      33              0.0000000000
      3746        33  SOPE      HN3            12.4525752138      -18.4010267674       23.0472807020  MEMB      33              0.0000000000
      3747        33  SOPE      C12            13.6084090442      -20.0622195886       22.5739108537  MEMB      33              0.0000000000
      3748        33  SOPE      H12A           14.4816863474      -20.6160455287       22.9800939036  MEMB      33              0.0000000000
      3749        33  SOPE      H12B           13.9552650063      -19.5127465525       21.6727498909  MEMB      33              0.0000000000
      3750        33  SOPE      C11            12.4451434855      -21.0553344508       22.3586761982  MEMB      33              0.0000000000
      3751        33  SOPE      H11A           11.8996275888      -21.1889147696       23.3172634664  MEMB      33              0.0000000000
      3752        33  SOPE      H11B           12.7822678359      -22.0905974167       22.1375453981  MEMB      33              0.0000000000
      3753        33  SOPE      P              11.6851063120      -21.0457893928       19.8865991882  MEMB      33              0.0000000000
      3754        33  SOPE      O13            10.3069588917      -20.9185198275       19.2946933641  MEMB      33              0.0000000000
      3755        33  SOPE      O14            12.3120652554      -22.4149684868       19.8868494535  MEMB      33              0.0000000000
      3756        33  SOPE      O12            11.6034593563      -20.4768772049       21.3588948905  MEMB      33              0.0000000000
      3757        33  SOPE      O11            12.6090762220      -20.0782949641       19.1498690378  MEMB      33              0.0000000000
      3758        33  SOPE      C1             12.3290047976      -18.6279541816       19.0164421956  MEMB      33              0.0000000000
      3759        33  SOPE      HA             13.0626787033      -18.1219491479       19.6797689291  MEMB      33              0.0000000000
      3760        33  SOPE      HB             11.2428586489      -18.5004355047       19.2122644651  MEMB      33              0.0000000000
      3761        33  SOPE      C2             12.6745370721      -18.2811289763       17.5928359498  MEMB      33              0.0000000000
      3762        33  SOPE      HS             12.2399222497      -17.2661226911       17.4695749102  MEMB      33              0.0000000000
      3763        33  SOPE      O21            12.1210513558      -19.2311919781       16.6161826335  MEMB      33              0.0000000000
      3764        33  SOPE      C21            10.7931546559      -19.1698787135       16.4750169637  MEMB      33              0.0000000000
      3765        33  SOPE      O22            10.1456939651      -18.2071041213       16.8328862253  MEMB      33              0.0000000000
      3766        33  SOPE      C22            10.2973499540      -20.4504072998       15.7574320717  MEMB      33              0.0000000000
      3767        33  SOPE      H2R             9.2388059387      -20.6242026951       16.0465696647  MEMB      33              0.0000000000
      3768        33  SOPE      H2S            10.8076818211      -21.3531991371       16.1559909401  MEMB      33              0.0000000000
      3769        33  SOPE      C3             14.2023826413      -18.1405474493       17.1880789521  MEMB      33              0.0000000000
      3770        33  SOPE      HX             14.7790542573      -17.4026164199       17.7857650884  MEMB      33              0.0000000000
      3771        33  SOPE      HY             14.2636395594      -17.7306143627       16.1572912711  MEMB      33              0.0000000000
      3772        33  SOPE      O31            14.9135926706      -19.3333219167       17.2120386772  MEMB      33              0.0000000000
      3773        33  SOPE      C31            15.4031115552      -19.8462417345       18.3041170043  MEMB      33              0.0000000000
      3774        33  SOPE      O32            15.4053329996      -19.3217320430       19.4335144058  MEMB      33              0.0000000000
      3775        33  SOPE      C32            15.9584096845      -21.2517793508       18.0054043317  MEMB      33              0.0000000000
      3776        33  SOPE      H2X            15.7180504671      -21.9193746787       18.8603106478  MEMB      33              0.0000000000
      3777        33  SOPE      H2Y            17.0634225318      -21.1586885485       17.9375669263  MEMB      33              0.0000000000
      3778        33  SOPE      C23            10.3521000959      -20.2056436603       14.2543431696  MEMB      33              0.0000000000
      3779        33  SOPE      H3R            11.3870812188      -19.9947563738       13.9098700234  MEMB      33              0.0000000000
      3780        33  SOPE      H3S             9.9180229780      -19.2470503063       13.8979770880  MEMB      33              0.0000000000
      3781        33  SOPE      C24             9.5602574595      -21.1529077841       13.3142516134  MEMB      33              0.0000000000
      3782        33  SOPE      H4R             9.7658928346      -22.1794831773       13.6859745359  MEMB      33              0.0000000000
      3783        33  SOPE      H4S             8.4785274159      -21.1150945226       13.5647537870  MEMB      33              0.0000000000
      3784        33  SOPE      C25             9.8225578573      -20.9357976341       11.8414409857  MEMB      33              0.0000000000
      3785        33  SOPE      H5R             9.1719519316      -20.1192544700       11.4615853510  MEMB      33              0.0000000000
      3786        33  SOPE      H5S            10.9059802921      -20.8664998803       11.6054017540  MEMB      33              0.0000000000
      3787        33  SOPE      C26             9.4941083423      -22.3897862723       11.2222738929  MEMB      33              0.0000000000
      3788        33  SOPE      H6R             8.5660064897      -22.6483092558       11.7755493210  MEMB      33              0.0000000000
      3789        33  SOPE      H6S             9.0765874038      -22.3151635563       10.1954204009  MEMB      33              0.0000000000
      3790        33  SOPE      C27            10.5479926091      -23.4243066571       11.4597204048  MEMB      33              0.0000000000
      3791        33  SOPE      H7R            10.9272672506      -23.4723758022       12.5028704947  MEMB      33              0.0000000000
      3792        33  SOPE      H7S            10.1042205032      -24.4216068933       11.2528898205  MEMB      33              0.0000000000
      3793        33  SOPE      C28            11.7932185778      -23.2541934545       10.6210338252  MEMB      33              0.0000000000
      3794        33  SOPE      H8R            11.7051892452      -22.3506326077        9.9806043738  MEMB      33              0.0000000000
      3795        33  SOPE      H8S            12.6149822484      -22.9438525728       11.3012646703  MEMB      33              0.0000000000
      3796        33  SOPE      C29            12.1869118703      -24.5451199812        9.8957109837  MEMB      33              0.0000000000
      3797        33  SOPE      H91            12.8651017582      -25.2347305722       10.4196339771  MEMB      33              0.0000000000
      3798        33  SOPE      C210           12.0316092709      -24.7650455651        8.5246969007  MEMB      33              0.0000000000
      3799        33  SOPE      H101           12.1529778224      -25.7743526727        8.1044964486  MEMB      33              0.0000000000
      3800        33  SOPE      C211           11.4093378386      -23.7471894201        7.6423702060  MEMB      33              0.0000000000
      3801        33  SOPE      H11R           12.0734956843      -22.8745472715        7.4642941956  MEMB      33              0.0000000000
      3802        33  SOPE      H11S           10.5812258049      -23.1724315680        8.1094940079  MEMB      33              0.0000000000
      3803        33  SOPE      C212           10.9281859565      -24.2095713225        6.2561321572  MEMB      33              0.0000000000
      3804        33  SOPE      H12R           10.4877888389      -25.2219390029        6.3805633660  MEMB      33              0.0000000000
      3805        33  SOPE      H12S           11.8450991736      -24.3828605832        5.6531710401  MEMB      33              0.0000000000
      3806        33  SOPE      C213            9.8230033907      -23.3403159804        5.5492466383  MEMB      33              0.0000000000
      3807        33  SOPE      H13R           10.2721264456      -22.3242050306        5.5605485921  MEMB      33              0.0000000000
      3808        33  SOPE      H13S            9.0163226680      -23.4676853969        6.3024822677  MEMB      33              0.0000000000
      3809        33  SOPE      C214            9.4313342486      -23.8470094300        4.1341660868  MEMB      33              0.0000000000
      3810        33  SOPE      H14R            8.4576833938      -23.3254535396        4.0145651585  MEMB      33              0.0000000000
      3811        33  SOPE      H14S            9.1801113426      -24.9269866791        4.2038605112  MEMB      33              0.0000000000
      3812        33  SOPE      C215           10.4714451223      -23.6094063746        3.0055737787  MEMB      33              0.0000000000
      3813        33  SOPE      H15R           11.2388338378      -24.3846112719        3.2165063640  MEMB      33              0.0000000000
      3814        33  SOPE      H15S           10.9569680829      -22.6161341131        3.1151124869  MEMB      33              0.0000000000
      3815        33  SOPE      C216            9.9628013395      -23.7764520556        1.5607578966  MEMB      33              0.0000000000
      3816        33  SOPE      H16R           10.7346112766      -23.3676788396        0.8740740503  MEMB      33              0.0000000000
      3817        33  SOPE      H16S            9.0360197211      -23.1706049713        1.4694007240  MEMB      33              0.0000000000
      3818        33  SOPE      C217            9.5496779373      -25.2321759973        1.2271342448  MEMB      33              0.0000000000
      3819        33  SOPE      H17R            9.1798333945      -25.7959055234        2.1101656093  MEMB      33              0.0000000000
      3820        33  SOPE      H17S           10.4886023127      -25.7620335211        0.9588197279  MEMB      33              0.0000000000
      3821        33  SOPE      C218            8.4724459860      -25.3393609823        0.0798953628  MEMB      33              0.0000000000
      3822        33  SOPE      H18R            8.5038661787      -26.3519239582       -0.3762291186  MEMB      33              0.0000000000
      3823        33  SOPE      H18S            8.6021148631      -24.5925812963       -0.7324024165  MEMB      33              0.0000000000
      3824        33  SOPE      H18T            7.4563080973      -25.1936695134        0.5048166755  MEMB      33              0.0000000000
      3825        33  SOPE      C33            15.4862617252      -21.9031528112       16.7520272160  MEMB      33              0.0000000000
      3826        33  SOPE      H3X            14.3797074093      -21.9550166653       16.6673584663  MEMB      33              0.0000000000
      3827        33  SOPE      H3Y            15.7848871759      -22.9722272208       16.7048690007  MEMB      33              0.0000000000
      3828        33  SOPE      C34            16.2655778769      -21.3497567399       15.4956131991  MEMB      33              0.0000000000
      3829        33  SOPE      H4X            17.1252070961      -21.9462018825       15.1219657378  MEMB      33              0.0000000000
      3830        33  SOPE      H4Y            16.7878219489      -20.3993059899       15.7369130858  MEMB      33              0.0000000000
      3831        33  SOPE      C35            15.3194612367      -21.0117943613       14.3453334868  MEMB      33              0.0000000000
      3832        33  SOPE      H5X            14.5587618507      -20.4593449183       14.9373274146  MEMB      33              0.0000000000
      3833        33  SOPE      H5Y            14.6989094487      -21.8488259809       13.9598280151  MEMB      33              0.0000000000
      3834        33  SOPE      C36            15.8018070789      -20.0619444197       13.1726761702  MEMB      33              0.0000000000
      3835        33  SOPE      H6X            16.4314934448      -20.6681123072       12.4868360794  MEMB      33              0.0000000000
      3836        33  SOPE      H6Y            16.5203955979      -19.3662163417       13.6563225836  MEMB      33              0.0000000000
      3837        33  SOPE      C37            14.7706825881      -19.2397514192       12.4206305890  MEMB      33              0.0000000000
      3838        33  SOPE      H7X            15.3335840239      -18.5744503684       11.7315455794  MEMB      33              0.0000000000
      3839        33  SOPE      H7Y            14.3191557537      -18.6865007901       13.2717229351  MEMB      33              0.0000000000
      3840        33  SOPE      C38            13.7614423702      -20.0586777261       11.5778962986  MEMB      33              0.0000000000
      3841        33  SOPE      H8X            12.8491781987      -20.1256904756       12.2084550411  MEMB      33              0.0000000000
      3842        33  SOPE      H8Y            14.1014901318      -21.1152328200       11.5291120325  MEMB      33              0.0000000000
      3843        33  SOPE      C39            13.3037520291      -19.3465156944       10.2528022596  MEMB      33              0.0000000000
      3844        33  SOPE      H9X            13.0271589911      -18.3388672201       10.6302426561  MEMB      33              0.0000000000
      3845        33  SOPE      H9Y            12.3957693056      -19.8547153890        9.8634159970  MEMB      33              0.0000000000
      3846        33  SOPE      C310           14.3570235911      -19.2826719415        9.1856314081  MEMB      33              0.0000000000
      3847        33  SOPE      H10X           15.2907260209      -18.8277015973        9.5799955699  MEMB      33              0.0000000000
      3848        33  SOPE      H10Y           14.0191824657      -18.7724832064        8.2583279802  MEMB      33              0.0000000000
      3849        33  SOPE      C311           14.8873917276      -20.6897136127        8.9151861633  MEMB      33              0.0000000000
      3850        33  SOPE      H11X           13.9646927429      -21.2424825902        8.6369889524  MEMB      33              0.0000000000
      3851        33  SOPE      H11Y           15.2115399543      -21.0878271712        9.9004547948  MEMB      33              0.0000000000
      3852        33  SOPE      C312           16.1018732740      -20.8605148261        7.9524422145  MEMB      33              0.0000000000
      3853        33  SOPE      H12X           16.6195113994      -21.8010586089        8.2383602435  MEMB      33              0.0000000000
      3854        33  SOPE      H12Y           16.8486571548      -20.0391162299        7.9964787710  MEMB      33              0.0000000000
      3855        33  SOPE      C313           15.5919858153      -20.8972109154        6.5498857856  MEMB      33              0.0000000000
      3856        33  SOPE      H13X           16.4527117409      -20.9122145120        5.8475705113  MEMB      33              0.0000000000
      3857        33  SOPE      H13Y           14.9822773217      -20.0061464800        6.2880059490  MEMB      33              0.0000000000
      3858        33  SOPE      C314           14.8974981312      -22.2871178604        6.3247214236  MEMB      33              0.0000000000
      3859        33  SOPE      H14X           14.1286246994      -22.6391263962        7.0453073106  MEMB      33              0.0000000000
      3860        33  SOPE      H14Y           15.7364681130      -23.0095032749        6.4175089680  MEMB      33              0.0000000000
      3861        33  SOPE      C315           14.3112137072      -22.4378600125        4.9443537220  MEMB      33              0.0000000000
      3862        33  SOPE      H15X           13.8336715670      -21.5300213277        4.5176179425  MEMB      33              0.0000000000
      3863        33  SOPE      H15Y           13.5433230298      -23.2203664843        5.1242100893  MEMB      33              0.0000000000
      3864        33  SOPE      C316           15.3999766216      -22.9144537782        3.9435617544  MEMB      33              0.0000000000
      3865        33  SOPE      H16X           15.9841513080      -23.7890541067        4.3015211827  MEMB      33              0.0000000000
      3866        33  SOPE      H16Y           16.1031317802      -22.1280348059        3.5950820021  MEMB      33              0.0000000000
      3867        33  SOPE      C317           14.7384830207      -23.5029907448        2.6683187091  MEMB      33              0.0000000000
      3868        33  SOPE      H17X           13.9785918348      -24.2124991430        3.0600890372  MEMB      33              0.0000000000
      3869        33  SOPE      H17Y           15.5368828032      -24.1508525797        2.2474229093  MEMB      33              0.0000000000
      3870        33  SOPE      C318           14.2454451180      -22.5565984115        1.5500966173  MEMB      33              0.0000000000
      3871        33  SOPE      H18X           14.0445321140      -23.1195455146        0.6135911358  MEMB      33              0.0000000000
      3872        33  SOPE      H18Y           15.0666097638      -21.8417164123        1.3288441800  MEMB      33              0.0000000000
      3873        33  SOPE      H18Z           13.3415380357      -21.9837984967        1.8487169761  MEMB      33              0.0000000000
      3874        34  SAPI      C12             5.9734754138       25.3178824294       24.0499145821  MEMB      34              0.0000000000
      3875        34  SAPI      H2              5.6907252334       26.2371124623       23.4936866486  MEMB      34              0.0000000000
      3876        34  SAPI      O2              7.3658448482       25.5186071750       24.2627532513  MEMB      34              0.0000000000
      3877        34  SAPI      HO2             7.7752819332       25.6031615176       23.3985704596  MEMB      34              0.0000000000
      3878        34  SAPI      C13             5.2420032587       25.2391231913       25.3355775623  MEMB      34              0.0000000000
      3879        34  SAPI      H3              4.1561259462       25.0809549045       25.1618698397  MEMB      34              0.0000000000
      3880        34  SAPI      O3              5.2714559512       26.4513591912       26.0529983527  MEMB      34              0.0000000000
      3881        34  SAPI      HO3             6.2002088831       26.5998788929       26.2452478968  MEMB      34              0.0000000000
      3882        34  SAPI      C14             5.7040080198       24.0541263452       26.1526091395  MEMB      34              0.0000000000
      3883        34  SAPI      H4              6.7593485572       24.1781790279       26.4769366842  MEMB      34              0.0000000000
      3884        34  SAPI      O4              4.9945460283       24.0687906054       27.3627993441  MEMB      34              0.0000000000
      3885        34  SAPI      HO4             5.5785849057       24.3562479684       28.0683963634  MEMB      34              0.0000000000
      3886        34  SAPI      C15             5.5525343822       22.7478476861       25.3632560004  MEMB      34              0.0000000000
      3887        34  SAPI      H5              4.4892736838       22.5095046368       25.1464833189  MEMB      34              0.0000000000
      3888        34  SAPI      O5              6.0547277320       21.6384009580       26.0793040485  MEMB      34              0.0000000000
      3889        34  SAPI      HO5             5.6347316429       20.8016439896       25.8670752152  MEMB      34              0.0000000000
      3890        34  SAPI      C16             6.2561002801       22.8107547599       24.0437958033  MEMB      34              0.0000000000
      3891        34  SAPI      H6              7.2628785661       23.1543207786       24.3642346863  MEMB      34              0.0000000000
      3892        34  SAPI      O6              6.1731281289       21.5648931336       23.3221165441  MEMB      34              0.0000000000
      3893        34  SAPI      HO6             6.9523541935       21.0312103987       23.4941325835  MEMB      34              0.0000000000
      3894        34  SAPI      C11             5.7157419964       24.0018571570       23.2210190942  MEMB      34              0.0000000000
      3895        34  SAPI      H1              4.6285627967       23.9637391809       22.9953877834  MEMB      34              0.0000000000
      3896        34  SAPI      P               5.7890113503       23.7538181429       20.5925686004  MEMB      34              0.0000000000
      3897        34  SAPI      O13             4.7175376070       24.7884023719       20.4318744628  MEMB      34              0.0000000000
      3898        34  SAPI      O14             5.3993715518       22.3200867642       20.6223233781  MEMB      34              0.0000000000
      3899        34  SAPI      O12             6.5074614847       24.1196519989       21.9941863965  MEMB      34              0.0000000000
      3900        34  SAPI      O11             6.8983694628       23.9254101107       19.5012231145  MEMB      34              0.0000000000
      3901        34  SAPI      C1              8.1704767455       23.4875780793       19.9359932599  MEMB      34              0.0000000000
      3902        34  SAPI      HA              8.7126985282       24.3943286716       20.2796792415  MEMB      34              0.0000000000
      3903        34  SAPI      HB              8.1297060307       22.6408567595       20.6541309680  MEMB      34              0.0000000000
      3904        34  SAPI      C2              9.0514598091       22.9651749185       18.7504114754  MEMB      34              0.0000000000
      3905        34  SAPI      HS             10.0520300396       22.7149735032       19.1634242488  MEMB      34              0.0000000000
      3906        34  SAPI      O21             9.0715179707       23.9332126701       17.6372441998  MEMB      34              0.0000000000
      3907        34  SAPI      C21             9.9978863527       24.8576430876       17.5939028255  MEMB      34              0.0000000000
      3908        34  SAPI      O22            10.8302893908       25.0982282898       18.4178880948  MEMB      34              0.0000000000
      3909        34  SAPI      C22             9.9040590706       25.6022563178       16.2342255431  MEMB      34              0.0000000000
      3910        34  SAPI      H2R            10.0895570621       26.6973158403       16.2617238115  MEMB      34              0.0000000000
      3911        34  SAPI      H2S            10.7191320197       25.1393998591       15.6377848226  MEMB      34              0.0000000000
      3912        34  SAPI      C3              8.4373480771       21.6088437389       18.1714193418  MEMB      34              0.0000000000
      3913        34  SAPI      HX              8.1671393467       21.0427660332       19.0884059239  MEMB      34              0.0000000000
      3914        34  SAPI      HY              9.1384290615       21.0344910770       17.5288265474  MEMB      34              0.0000000000
      3915        34  SAPI      O31             7.1705882856       21.9386489343       17.4717603869  MEMB      34              0.0000000000
      3916        34  SAPI      C31             7.3036029101       21.9947034716       16.0956087266  MEMB      34              0.0000000000
      3917        34  SAPI      O32             8.3391896817       21.7725829015       15.4722716488  MEMB      34              0.0000000000
      3918        34  SAPI      C32             5.9857604717       22.1924503468       15.4724221715  MEMB      34              0.0000000000
      3919        34  SAPI      H2X             5.3326633681       21.3095163060       15.6403881704  MEMB      34              0.0000000000
      3920        34  SAPI      H2Y             5.9937853337       22.2454470145       14.3627158012  MEMB      34              0.0000000000
      3921        34  SAPI      C23             8.5212100971       25.4396983021       15.5506122950  MEMB      34              0.0000000000
      3922        34  SAPI      H3R             7.7240341553       25.4799479107       16.3234071362  MEMB      34              0.0000000000
      3923        34  SAPI      H3S             8.4596806775       24.4271374622       15.0975609181  MEMB      34              0.0000000000
      3924        34  SAPI      C24             8.2245471702       26.4376417142       14.3373879671  MEMB      34              0.0000000000
      3925        34  SAPI      H4R             9.1153333674       26.6744352314       13.7171062006  MEMB      34              0.0000000000
      3926        34  SAPI      H4S             8.1455740245       27.4155290075       14.8587524114  MEMB      34              0.0000000000
      3927        34  SAPI      C25             7.1072123841       26.0248271767       13.4920196296  MEMB      34              0.0000000000
      3928        34  SAPI      H5R             6.0875491948       26.3376911100       13.7610977687  MEMB      34              0.0000000000
      3929        34  SAPI      C26             7.2676909948       25.3884970435       12.3247070136  MEMB      34              0.0000000000
      3930        34  SAPI      H6R             6.3592271640       25.0180879405       11.8272232558  MEMB      34              0.0000000000
      3931        34  SAPI      C27             8.5762600169       24.9786437880       11.6151343028  MEMB      34              0.0000000000
      3932        34  SAPI      H7R             8.3310202087       23.9400734745       11.3060224078  MEMB      34              0.0000000000
      3933        34  SAPI      H7S             9.4102416784       24.8541866177       12.3385335203  MEMB      34              0.0000000000
      3934        34  SAPI      C28             9.0063801918       25.8708203254       10.5322754067  MEMB      34              0.0000000000
      3935        34  SAPI      H8R             9.2167497736       26.9097053207       10.8263199375  MEMB      34              0.0000000000
      3936        34  SAPI      C29             9.3669546930       25.5350674413        9.2624379425  MEMB      34              0.0000000000
      3937        34  SAPI      H9R             9.6391589627       26.2794661002        8.4996954995  MEMB      34              0.0000000000
      3938        34  SAPI      C210            9.3141846283       24.1024348063        8.7220478067  MEMB      34              0.0000000000
      3939        34  SAPI      H10R            9.5098299913       23.3426289540        9.5086479962  MEMB      34              0.0000000000
      3940        34  SAPI      H10S           10.1995037658       23.7888849307        8.1285690729  MEMB      34              0.0000000000
      3941        34  SAPI      C211            7.9790697037       23.9851573671        7.9382820092  MEMB      34              0.0000000000
      3942        34  SAPI      H11R            7.0328114187       24.1970153966        8.4576199779  MEMB      34              0.0000000000
      3943        34  SAPI      C212            7.9849578595       23.6548015871        6.6364046961  MEMB      34              0.0000000000
      3944        34  SAPI      H12R            7.0141637438       23.3518153073        6.2171698763  MEMB      34              0.0000000000
      3945        34  SAPI      C213            9.1873475918       23.3449021510        5.7913569802  MEMB      34              0.0000000000
      3946        34  SAPI      H13R            8.7129455205       22.7280981972        4.9983780759  MEMB      34              0.0000000000
      3947        34  SAPI      H13S            9.9171277449       22.6112776608        6.1957539637  MEMB      34              0.0000000000
      3948        34  SAPI      C214            9.7824625264       24.6887033472        5.3421502057  MEMB      34              0.0000000000
      3949        34  SAPI      H14R           10.5245561322       25.1081294635        6.0374043103  MEMB      34              0.0000000000
      3950        34  SAPI      C215            9.5722664352       25.4236497132        4.2228006980  MEMB      34              0.0000000000
      3951        34  SAPI      H15R           10.1772022854       26.3358654301        4.1136446739  MEMB      34              0.0000000000
      3952        34  SAPI      C216            8.6024297041       24.9926256930        3.1128334712  MEMB      34              0.0000000000
      3953        34  SAPI      H16R            8.3020597810       25.9087550657        2.5607415494  MEMB      34              0.0000000000
      3954        34  SAPI      H16S            7.7276147267       24.7086471303        3.7360316645  MEMB      34              0.0000000000
      3955        34  SAPI      C217            8.9546580935       23.8010246359        2.2321256959  MEMB      34              0.0000000000
      3956        34  SAPI      H17R            9.4098468522       22.9628006616        2.8017790891  MEMB      34              0.0000000000
      3957        34  SAPI      H17S            9.6527958662       24.1204676503        1.4290815537  MEMB      34              0.0000000000
      3958        34  SAPI      C218            7.6061509265       23.2993039982        1.5352799963  MEMB      34              0.0000000000
      3959        34  SAPI      H18R            7.0984787562       24.1410759664        1.0175851961  MEMB      34              0.0000000000
      3960        34  SAPI      H18S            6.8703184375       23.0006634227        2.3122521636  MEMB      34              0.0000000000
      3961        34  SAPI      C219            7.9271620373       22.1573350237        0.5629223781  MEMB      34              0.0000000000
      3962        34  SAPI      H19R            8.1419751894       21.1963310186        1.0773596895  MEMB      34              0.0000000000
      3963        34  SAPI      H19S            8.8942941922       22.4063862431        0.0761470501  MEMB      34              0.0000000000
      3964        34  SAPI      C220            6.7147267754       21.9291051993       -0.3907288832  MEMB      34              0.0000000000
      3965        34  SAPI      H20R            5.7243889178       21.6423761000        0.0232011710  MEMB      34              0.0000000000
      3966        34  SAPI      H20S            6.9464213468       21.1107904113       -1.1055712897  MEMB      34              0.0000000000
      3967        34  SAPI      H20T            6.7053872843       22.7994626652       -1.0811729492  MEMB      34              0.0000000000
      3968        34  SAPI      C33             5.3523654245       23.5189973690       15.9050447031  MEMB      34              0.0000000000
      3969        34  SAPI      H3X             6.1618153364       24.2326665887       15.6408704601  MEMB      34              0.0000000000
      3970        34  SAPI      H3Y             5.1752969117       23.4344665761       16.9985812380  MEMB      34              0.0000000000
      3971        34  SAPI      C34             4.1870843685       23.8847087279       15.0835868203  MEMB      34              0.0000000000
      3972        34  SAPI      H4X             4.5303943460       23.9170851318       14.0274565110  MEMB      34              0.0000000000
      3973        34  SAPI      H4Y             3.8598586847       24.8541112961       15.5166032806  MEMB      34              0.0000000000
      3974        34  SAPI      C35             3.0158155687       22.8297769354       15.1104622520  MEMB      34              0.0000000000
      3975        34  SAPI      H5X             2.9309451319       22.4561035169       16.1532882143  MEMB      34              0.0000000000
      3976        34  SAPI      H5Y             3.2713483357       22.0417912416       14.3701227399  MEMB      34              0.0000000000
      3977        34  SAPI      C36             1.6424914918       23.5356310722       14.8384759656  MEMB      34              0.0000000000
      3978        34  SAPI      H6X             1.3317745734       24.2053892983       15.6686565984  MEMB      34              0.0000000000
      3979        34  SAPI      H6Y             0.9283618927       22.7066561838       14.6457566808  MEMB      34              0.0000000000
      3980        34  SAPI      C37             1.7769153177       24.5467229006       13.5711525184  MEMB      34              0.0000000000
      3981        34  SAPI      H7X             2.6589079069       25.1879984985       13.7836978880  MEMB      34              0.0000000000
      3982        34  SAPI      H7Y             0.7750498643       25.0223050563       13.6375525586  MEMB      34              0.0000000000
      3983        34  SAPI      C38             1.9835839170       23.7745613550       12.2131628132  MEMB      34              0.0000000000
      3984        34  SAPI      H8X             1.1373182035       23.0785047517       12.0296949749  MEMB      34              0.0000000000
      3985        34  SAPI      H8Y             2.9805366821       23.2874232091       12.1574647319  MEMB      34              0.0000000000
      3986        34  SAPI      C39             1.9252162754       24.7834715271       11.0960145430  MEMB      34              0.0000000000
      3987        34  SAPI      H9X             2.5493995045       25.6448892822       11.4164454717  MEMB      34              0.0000000000
      3988        34  SAPI      H9Y             0.8695718719       25.0989680933       10.9531940928  MEMB      34              0.0000000000
      3989        34  SAPI      C310            2.4131615978       24.1611587765        9.7738629736  MEMB      34              0.0000000000
      3990        34  SAPI      H10X            1.7005588891       23.3364692666        9.5584436274  MEMB      34              0.0000000000
      3991        34  SAPI      H10Y            3.4286827206       23.7245122683        9.8851185168  MEMB      34              0.0000000000
      3992        34  SAPI      C311            2.6439496337       25.0835001793        8.5388678491  MEMB      34              0.0000000000
      3993        34  SAPI      H11X            3.3715234510       25.8485269549        8.8848320198  MEMB      34              0.0000000000
      3994        34  SAPI      H11Y            1.6696317924       25.5638413527        8.3058490838  MEMB      34              0.0000000000
      3995        34  SAPI      C312            3.1632100310       24.4421999578        7.1678465061  MEMB      34              0.0000000000
      3996        34  SAPI      H12X            2.3743807932       24.1207707796        6.4545780106  MEMB      34              0.0000000000
      3997        34  SAPI      H12Y            3.6327214631       23.4880588488        7.4895525491  MEMB      34              0.0000000000
      3998        34  SAPI      C313            4.2580886498       25.2802799999        6.5367791540  MEMB      34              0.0000000000
      3999        34  SAPI      H13X            5.1510545846       25.2202065575        7.1950529884  MEMB      34              0.0000000000
      4000        34  SAPI      H13Y            4.0417068838       26.3684153705        6.4779470230  MEMB      34              0.0000000000
      4001        34  SAPI      C314            4.8142609541       24.7488874400        5.1779502139  MEMB      34              0.0000000000
      4002        34  SAPI      H14X            5.0513604481       23.6709823024        5.3053294025  MEMB      34              0.0000000000
      4003        34  SAPI      H14Y            5.8451490237       25.1505827083        5.0767987885  MEMB      34              0.0000000000
      4004        34  SAPI      C315            3.9241546938       25.0956093474        3.9211412180  MEMB      34              0.0000000000
      4005        34  SAPI      H15X            3.7312581115       26.1855601273        4.0166343084  MEMB      34              0.0000000000
      4006        34  SAPI      H15Y            2.9359985695       24.5889535512        3.8869605986  MEMB      34              0.0000000000
      4007        34  SAPI      C316            4.5651316818       24.8851609212        2.5621863660  MEMB      34              0.0000000000
      4008        34  SAPI      H16X            4.8043838394       23.8132017640        2.3949063422  MEMB      34              0.0000000000
      4009        34  SAPI      H16Y            5.5095126479       25.4580487154        2.4427499381  MEMB      34              0.0000000000
      4010        34  SAPI      C317            3.5604040611       25.1239397872        1.3610161615  MEMB      34              0.0000000000
      4011        34  SAPI      H17X            2.6589888593       24.4874744902        1.4901815411  MEMB      34              0.0000000000
      4012        34  SAPI      H17Y            4.0235359386       24.7978373350        0.4052501360  MEMB      34              0.0000000000
      4013        34  SAPI      C318            3.2180809333       26.6265081164        1.2337529542  MEMB      34              0.0000000000
      4014        34  SAPI      H18X            2.7593110038       27.0912805750        2.1325497317  MEMB      34              0.0000000000
      4015        34  SAPI      H18Y            2.4844317271       26.5649879341        0.4017093215  MEMB      34              0.0000000000
      4016        34  SAPI      H18Z            4.1376965809       27.2043352418        0.9997771427  MEMB      34              0.0000000000
      4017        35  CHL1      C3            -24.6590284944       -2.2272679886       17.2849300000  MEMB      35              0.0000000000
      4018        35  CHL1      H3            -23.6215992987       -2.0476601827       16.9302300000  MEMB      35              0.0000000000
      4019        35  CHL1      O3            -24.6797317056       -2.1791080514       18.7150700000  MEMB      35              0.0000000000
      4020        35  CHL1      H3'           -24.4406932091       -1.2740677678       18.9280600000  MEMB      35              0.0000000000
      4021        35  CHL1      C4            -25.6107678958       -1.0963238887       16.6949100000  MEMB      35              0.0000000000
      4022        35  CHL1      H4A           -26.5820243698       -1.1909443819       17.2259900000  MEMB      35              0.0000000000
      4023        35  CHL1      H4B           -25.0767209945       -0.2044220564       17.0868500000  MEMB      35              0.0000000000
      4024        35  CHL1      C5            -25.8046752374       -1.1866729797       15.1926100000  MEMB      35              0.0000000000
      4025        35  CHL1      C6            -25.3523486029       -0.2076647660       14.4455800000  MEMB      35              0.0000000000
      4026        35  CHL1      H6            -24.8921802183        0.6851334933       14.8940900000  MEMB      35              0.0000000000
      4027        35  CHL1      C7            -25.4700656632       -0.2630428358       12.9240700000  MEMB      35              0.0000000000
      4028        35  CHL1      H7A           -25.9087835873        0.6779015600       12.5285200000  MEMB      35              0.0000000000
      4029        35  CHL1      H7B           -24.4520747230       -0.3716515670       12.4925500000  MEMB      35              0.0000000000
      4030        35  CHL1      C8            -26.2935396437       -1.4890904290       12.3931900000  MEMB      35              0.0000000000
      4031        35  CHL1      H8            -27.3583709080       -1.1732648934       12.4199200000  MEMB      35              0.0000000000
      4032        35  CHL1      C14           -25.9161781800       -1.7370399390       10.9224000000  MEMB      35              0.0000000000
      4033        35  CHL1      H14           -24.8587932840       -2.0475584606       10.7815800000  MEMB      35              0.0000000000
      4034        35  CHL1      C15           -25.9576497262       -0.5141034381       10.0045900000  MEMB      35              0.0000000000
      4035        35  CHL1      H15A          -26.8999257930        0.0364910155       10.2126600000  MEMB      35              0.0000000000
      4036        35  CHL1      H15B          -25.1395387266        0.2215973976       10.1587000000  MEMB      35              0.0000000000
      4037        35  CHL1      C16           -26.1485512000       -1.1652470502        8.6131600000  MEMB      35              0.0000000000
      4038        35  CHL1      H16A          -27.1645803391       -0.8743906209        8.2705000000  MEMB      35              0.0000000000
      4039        35  CHL1      H16B          -25.3818479263       -0.9069822343        7.8517200000  MEMB      35              0.0000000000
      4040        35  CHL1      C17           -26.2726384301       -2.7382484309        8.9019500000  MEMB      35              0.0000000000
      4041        35  CHL1      H17           -25.2474939241       -3.1658981706        8.8790900000  MEMB      35              0.0000000000
      4042        35  CHL1      C13           -26.7506043991       -2.8854010607       10.3288700000  MEMB      35              0.0000000000
      4043        35  CHL1      C18           -28.2532343662       -2.5272155114       10.4796000000  MEMB      35              0.0000000000
      4044        35  CHL1      H18A          -28.4392911071       -1.4372702206       10.3713000000  MEMB      35              0.0000000000
      4045        35  CHL1      H18B          -28.8635357363       -3.1994682670        9.8393600000  MEMB      35              0.0000000000
      4046        35  CHL1      H18C          -28.6575949345       -2.7800704187       11.4830300000  MEMB      35              0.0000000000
      4047        35  CHL1      C12           -26.3945059629       -4.1417888915       11.0111700000  MEMB      35              0.0000000000
      4048        35  CHL1      H12A          -26.8778438998       -5.0869701705       10.6835400000  MEMB      35              0.0000000000
      4049        35  CHL1      H12B          -25.3585191370       -4.4741015729       10.7861700000  MEMB      35              0.0000000000
      4050        35  CHL1      C11           -26.5709375649       -4.0968614620       12.6023500000  MEMB      35              0.0000000000
      4051        35  CHL1      H11A          -27.6526402482       -3.9756918272       12.8249300000  MEMB      35              0.0000000000
      4052        35  CHL1      H11B          -26.2846026242       -5.0739662723       13.0468900000  MEMB      35              0.0000000000
      4053        35  CHL1      C9            -26.0032281871       -2.7880783514       13.1880100000  MEMB      35              0.0000000000
      4054        35  CHL1      H9            -24.9491431946       -2.9772622587       12.8923300000  MEMB      35              0.0000000000
      4055        35  CHL1      C10           -26.2617917393       -2.6181482673       14.7209100000  MEMB      35              0.0000000000
      4056        35  CHL1      C19           -27.7481961447       -2.7959635020       15.0834000000  MEMB      35              0.0000000000
      4057        35  CHL1      H19A          -28.3694657288       -1.9786702782       14.6586800000  MEMB      35              0.0000000000
      4058        35  CHL1      H19B          -28.1244594790       -3.7727054033       14.7109500000  MEMB      35              0.0000000000
      4059        35  CHL1      H19C          -27.7365527059       -2.7732910665       16.1941100000  MEMB      35              0.0000000000
      4060        35  CHL1      C1            -25.4451920339       -3.7852205470       15.4372000000  MEMB      35              0.0000000000
      4061        35  CHL1      H1A           -26.0992003818       -4.6639966409       15.2518800000  MEMB      35              0.0000000000
      4062        35  CHL1      H1B           -24.4363531403       -3.9302505706       14.9950100000  MEMB      35              0.0000000000
      4063        35  CHL1      C2            -25.1954272460       -3.6280614724       16.9366000000  MEMB      35              0.0000000000
      4064        35  CHL1      H2A           -24.4154197999       -4.3573680826       17.2432300000  MEMB      35              0.0000000000
      4065        35  CHL1      H2B           -26.1844098787       -3.6707550459       17.4409900000  MEMB      35              0.0000000000
      4066        35  CHL1      C20           -26.9203497015       -3.5799682160        7.6945000000  MEMB      35              0.0000000000
      4067        35  CHL1      H20           -26.3561601880       -3.1284838736        6.8506000000  MEMB      35              0.0000000000
      4068        35  CHL1      C21           -28.4042447595       -3.2347259461        7.3579200000  MEMB      35              0.0000000000
      4069        35  CHL1      H21A          -28.5836300052       -3.5628769936        6.3117600000  MEMB      35              0.0000000000
      4070        35  CHL1      H21B          -28.6777843181       -2.1606402867        7.4342200000  MEMB      35              0.0000000000
      4071        35  CHL1      H21C          -29.0090550640       -3.8459767722        8.0614200000  MEMB      35              0.0000000000
      4072        35  CHL1      C22           -26.5157146833       -4.9668810322        7.7517100000  MEMB      35              0.0000000000
      4073        35  CHL1      H22A          -25.4125832857       -5.0271002158        7.8691900000  MEMB      35              0.0000000000
      4074        35  CHL1      H22B          -26.9363062740       -5.4785196096        8.6437000000  MEMB      35              0.0000000000
      4075        35  CHL1      C23           -27.0659572179       -5.7843984094        6.5375000000  MEMB      35              0.0000000000
      4076        35  CHL1      H23A          -28.0570525598       -6.2559139890        6.7099100000  MEMB      35              0.0000000000
      4077        35  CHL1      H23B          -27.0904633557       -5.1320089792        5.6385500000  MEMB      35              0.0000000000
      4078        35  CHL1      C24           -26.0710096261       -6.9083266428        6.0988800000  MEMB      35              0.0000000000
      4079        35  CHL1      H24A          -25.1848080682       -6.5014226417        5.5665200000  MEMB      35              0.0000000000
      4080        35  CHL1      H24B          -25.7610775301       -7.4622145762        7.0107300000  MEMB      35              0.0000000000
      4081        35  CHL1      C25           -26.6753789944       -7.7307347441        5.0015600000  MEMB      35              0.0000000000
      4082        35  CHL1      H25           -27.6298538465       -8.2525510656        5.2274000000  MEMB      35              0.0000000000
      4083        35  CHL1      C26           -26.9766378023       -6.9460830541        3.6400900000  MEMB      35              0.0000000000
      4084        35  CHL1      H26A          -26.0640772263       -6.4969365121        3.1930700000  MEMB      35              0.0000000000
      4085        35  CHL1      H26B          -27.3708091342       -7.5845264627        2.8207300000  MEMB      35              0.0000000000
      4086        35  CHL1      H26C          -27.7151180836       -6.1164881535        3.6127100000  MEMB      35              0.0000000000
      4087        35  CHL1      C27           -25.7748986114       -8.9053464754        4.4964400000  MEMB      35              0.0000000000
      4088        35  CHL1      H27A          -24.7976309673       -8.6133899704        4.0559500000  MEMB      35              0.0000000000
      4089        35  CHL1      H27B          -25.5587076127       -9.5869327220        5.3467400000  MEMB      35              0.0000000000
      4090        35  CHL1      H27C          -26.2434311572       -9.5295511033        3.7057600000  MEMB      35              0.0000000000
      4091        36  OSM       N             -11.0485569180      -25.3694363937       21.4992012155  MEMB      36              0.0000000000
      4092        36  OSM       C15           -11.1234126318      -26.7802056767       21.0286526441  MEMB      36              0.0000000000
      4093        36  OSM       H15A          -10.2894371048      -27.3825907683       21.3573120070  MEMB      36              0.0000000000
      4094        36  OSM       H15B          -10.8836404112      -26.7096487957       19.9779714413  MEMB      36              0.0000000000
      4095        36  OSM       H15C          -12.0294017424      -27.3384764954       21.2128183948  MEMB      36              0.0000000000
      4096        36  OSM       C14           -11.4168402774      -25.3586579373       22.9998222535  MEMB      36              0.0000000000
      4097        36  OSM       H14A          -10.8919516113      -26.2039992441       23.4196912003  MEMB      36              0.0000000000
      4098        36  OSM       H14B          -12.4802139781      -25.4187416053       23.1787813287  MEMB      36              0.0000000000
      4099        36  OSM       H14C          -10.9976119280      -24.4235425764       23.3407132639  MEMB      36              0.0000000000
      4100        36  OSM       C13            -9.7283054944      -24.8177318117       21.2682262407  MEMB      36              0.0000000000
      4101        36  OSM       H13A           -9.0085463887      -25.4591914365       21.7549256525  MEMB      36              0.0000000000
      4102        36  OSM       H13B           -9.6249468940      -23.8177883009       21.6629792967  MEMB      36              0.0000000000
      4103        36  OSM       H13C           -9.4743332136      -24.8235709138       20.2185292073  MEMB      36              0.0000000000
      4104        36  OSM       C12           -12.1492339802      -24.5807818872       20.7214595691  MEMB      36              0.0000000000
      4105        36  OSM       H12A          -13.0582091728      -25.1619898910       20.6728657470  MEMB      36              0.0000000000
      4106        36  OSM       H12B          -11.8210536031      -24.3751406123       19.7132883944  MEMB      36              0.0000000000
      4107        36  OSM       C11           -12.6615052201      -23.1535867740       21.2348371851  MEMB      36              0.0000000000
      4108        36  OSM       H11A          -13.2411564932      -23.2790669293       22.1742945513  MEMB      36              0.0000000000
      4109        36  OSM       H11B          -13.4627730099      -22.8711785626       20.5189206278  MEMB      36              0.0000000000
      4110        36  OSM       P             -11.1920213343      -21.1198704612       20.4323044817  MEMB      36              0.0000000000
      4111        36  OSM       O13           -12.2268916922      -20.0474232646       20.4432566774  MEMB      36              0.0000000000
      4112        36  OSM       O14            -9.8716357287      -20.6825485930       20.8602813493  MEMB      36              0.0000000000
      4113        36  OSM       O11           -11.2102896828      -21.9328838131       19.0857825113  MEMB      36              0.0000000000
      4114        36  OSM       O12           -11.5946858464      -22.3129713884       21.4261758722  MEMB      36              0.0000000000
      4115        36  OSM       C1S           -11.5523551714      -21.2547930366       17.8565999484  MEMB      36              0.0000000000
      4116        36  OSM       H1S           -11.4142200063      -20.1526948364       17.8317113098  MEMB      36              0.0000000000
      4117        36  OSM       H1T           -12.6474383165      -21.3661457577       17.7058871508  MEMB      36              0.0000000000
      4118        36  OSM       NF            -10.6789502133      -23.2291474492       16.7818314792  MEMB      36              0.0000000000
      4119        36  OSM       HNF            -9.7272045988      -23.4766589922       16.9459265894  MEMB      36              0.0000000000
      4120        36  OSM       C2S           -10.8752051428      -21.8512645891       16.6329223223  MEMB      36              0.0000000000
      4121        36  OSM       H2S           -11.4397862846      -21.5783347417       15.7158188312  MEMB      36              0.0000000000
      4122        36  OSM       C3S            -9.4661866692      -21.1929069945       16.5178169759  MEMB      36              0.0000000000
      4123        36  OSM       H3S            -8.8192435671      -21.5435154522       17.3501987676  MEMB      36              0.0000000000
      4124        36  OSM       O3             -9.4301968188      -19.7979630157       16.5632781062  MEMB      36              0.0000000000
      4125        36  OSM       HO3           -10.3523280493      -19.5441646369       16.6461044890  MEMB      36              0.0000000000
      4126        36  OSM       C4S            -8.7771747865      -21.6317051836       15.2256128804  MEMB      36              0.0000000000
      4127        36  OSM       H4S            -9.4348277088      -21.5942614788       14.3446530838  MEMB      36              0.0000000000
      4128        36  OSM       C5S            -7.5654269867      -22.1652813157       15.1792864596  MEMB      36              0.0000000000
      4129        36  OSM       H5S            -7.0513639698      -22.3257697899       16.1384436304  MEMB      36              0.0000000000
      4130        36  OSM       C6S            -6.7437446368      -22.6431624997       14.0052632436  MEMB      36              0.0000000000
      4131        36  OSM       H6S            -6.5267197656      -23.6955607593       14.2875380442  MEMB      36              0.0000000000
      4132        36  OSM       H6T            -5.7983082390      -22.0667945171       14.0962090721  MEMB      36              0.0000000000
      4133        36  OSM       C7S            -7.2932452694      -22.5019459478       12.6124755709  MEMB      36              0.0000000000
      4134        36  OSM       H7S            -8.3566227790      -22.7838214022       12.4572490181  MEMB      36              0.0000000000
      4135        36  OSM       H7T            -6.7287291653      -23.3083231451       12.0973082238  MEMB      36              0.0000000000
      4136        36  OSM       C8S            -7.1682747637      -21.1684793729       11.8522764513  MEMB      36              0.0000000000
      4137        36  OSM       H8S            -6.4965604732      -20.4915575852       12.4222743670  MEMB      36              0.0000000000
      4138        36  OSM       H8T            -8.1624895826      -20.6729809190       11.8338566495  MEMB      36              0.0000000000
      4139        36  OSM       C9S            -6.7535799921      -21.3812390475       10.3831852083  MEMB      36              0.0000000000
      4140        36  OSM       H9S            -5.7433091049      -21.8354882739       10.2975624438  MEMB      36              0.0000000000
      4141        36  OSM       H9T            -6.6553741014      -20.3371286854       10.0164292613  MEMB      36              0.0000000000
      4142        36  OSM       C10S           -7.7875508287      -22.1771911010        9.5638229207  MEMB      36              0.0000000000
      4143        36  OSM       H10S           -8.7275529648      -21.5849845255        9.5666852327  MEMB      36              0.0000000000
      4144        36  OSM       H10T           -7.9869942914      -23.2078968761        9.9274010611  MEMB      36              0.0000000000
      4145        36  OSM       C11S           -7.2460934243      -22.2362079892        8.0979407246  MEMB      36              0.0000000000
      4146        36  OSM       H11S           -6.4223378219      -21.5006787777        7.9765169940  MEMB      36              0.0000000000
      4147        36  OSM       H11T           -8.0750302637      -21.8716288693        7.4543049507  MEMB      36              0.0000000000
      4148        36  OSM       C12S           -6.8605580308      -23.6045140416        7.6171575857  MEMB      36              0.0000000000
      4149        36  OSM       H12S           -7.5587116522      -24.4263980497        7.8843821345  MEMB      36              0.0000000000
      4150        36  OSM       H12T           -5.8465438711      -23.8518312065        7.9978547517  MEMB      36              0.0000000000
      4151        36  OSM       C13S           -6.6627973569      -23.8996578620        6.1145368995  MEMB      36              0.0000000000
      4152        36  OSM       H13S           -6.0391474137      -24.8088217737        5.9774141824  MEMB      36              0.0000000000
      4153        36  OSM       H13T           -5.9028631826      -23.1330238844        5.8516806586  MEMB      36              0.0000000000
      4154        36  OSM       C14S           -7.8405115209      -23.7426364837        5.1646164119  MEMB      36              0.0000000000
      4155        36  OSM       H14S           -8.1087549916      -22.6650099363        5.1975942025  MEMB      36              0.0000000000
      4156        36  OSM       H14T           -8.7123181120      -24.3561414653        5.4774839976  MEMB      36              0.0000000000
      4157        36  OSM       C15S           -7.4297823039      -24.1757072187        3.7366684607  MEMB      36              0.0000000000
      4158        36  OSM       H15S           -7.0590859770      -25.2176563773        3.8427216638  MEMB      36              0.0000000000
      4159        36  OSM       H15T           -6.5932131314      -23.5376036347        3.3798814386  MEMB      36              0.0000000000
      4160        36  OSM       C16S           -8.5815782775      -24.1210945196        2.7051655004  MEMB      36              0.0000000000
      4161        36  OSM       H16S           -9.4472455589      -24.6803100857        3.1201584736  MEMB      36              0.0000000000
      4162        36  OSM       H16T           -8.1720042981      -24.6544636322        1.8208069264  MEMB      36              0.0000000000
      4163        36  OSM       C17S           -8.8766065235      -22.6169496391        2.4979284456  MEMB      36              0.0000000000
      4164        36  OSM       H17S           -7.9293866202      -22.1081684341        2.2182196638  MEMB      36              0.0000000000
      4165        36  OSM       H17T           -9.2799852064      -21.9788574693        3.3130640096  MEMB      36              0.0000000000
      4166        36  OSM       C18S           -9.8227441307      -22.5179455242        1.2945204883  MEMB      36              0.0000000000
      4167        36  OSM       H18S          -10.2051754544      -23.5219168709        1.0114855047  MEMB      36              0.0000000000
      4168        36  OSM       H18T           -9.2520185474      -22.2382974708        0.3832633769  MEMB      36              0.0000000000
      4169        36  OSM       H18U          -10.5865643969      -21.7111990021        1.2867689432  MEMB      36              0.0000000000
      4170        36  OSM       C1F           -11.6314344733      -24.2219303188       16.8524851672  MEMB      36              0.0000000000
      4171        36  OSM       OF            -12.7754991662      -23.9477660121       16.8284913975  MEMB      36              0.0000000000
      4172        36  OSM       C2F           -11.2506058860      -25.6631736469       16.8631901391  MEMB      36              0.0000000000
      4173        36  OSM       H2F           -11.7814226780      -26.2430092937       17.6482666335  MEMB      36              0.0000000000
      4174        36  OSM       H2G           -10.1664445656      -25.6800019374       17.1053301357  MEMB      36              0.0000000000
      4175        36  OSM       C3F           -11.2576668408      -26.4682990615       15.5588858633  MEMB      36              0.0000000000
      4176        36  OSM       H3F           -12.3145432113      -26.5641361910       15.2300265350  MEMB      36              0.0000000000
      4177        36  OSM       H3G           -10.8434768852      -27.4690882652       15.8062494312  MEMB      36              0.0000000000
      4178        36  OSM       C4F           -10.3844953895      -25.8295342322       14.4908639912  MEMB      36              0.0000000000
      4179        36  OSM       H4F            -9.9924931407      -26.6405413788       13.8405389344  MEMB      36              0.0000000000
      4180        36  OSM       H4G            -9.4229373112      -25.4303607509       14.8786623429  MEMB      36              0.0000000000
      4181        36  OSM       C5F           -11.0993535172      -24.7427076616       13.6122580715  MEMB      36              0.0000000000
      4182        36  OSM       H5F           -10.3869057011      -24.4552076035       12.8097102718  MEMB      36              0.0000000000
      4183        36  OSM       H5G           -11.4020558302      -23.8291782132       14.1673765416  MEMB      36              0.0000000000
      4184        36  OSM       C6F           -12.2826605368      -25.3542016535       12.8636160206  MEMB      36              0.0000000000
      4185        36  OSM       H6F           -13.2076652926      -25.4265679709       13.4747212652  MEMB      36              0.0000000000
      4186        36  OSM       H6G           -11.9936847717      -26.3237789167       12.4045577627  MEMB      36              0.0000000000
      4187        36  OSM       C7F           -12.7902486926      -24.5182219277       11.6721090857  MEMB      36              0.0000000000
      4188        36  OSM       H7F           -12.1288753402      -24.3036860204       10.8055756828  MEMB      36              0.0000000000
      4189        36  OSM       H7G           -12.9689303476      -23.5441904755       12.1757529677  MEMB      36              0.0000000000
      4190        36  OSM       C8F           -14.2273736565      -24.9579852681       11.0851492112  MEMB      36              0.0000000000
      4191        36  OSM       H8F           -14.6490482466      -24.2612627152       10.3294447413  MEMB      36              0.0000000000
      4192        36  OSM       H8G           -14.9600961696      -24.9648191316       11.9202495736  MEMB      36              0.0000000000
      4193        36  OSM       C9F           -14.2767904808      -26.3680201974       10.5591052340  MEMB      36              0.0000000000
      4194        36  OSM       H9F           -14.8399005608      -27.0853074647       11.1742519307  MEMB      36              0.0000000000
      4195        36  OSM       C10F          -13.6809071478      -26.7562764656        9.4304238971  MEMB      36              0.0000000000
      4196        36  OSM       H10F          -13.7434574719      -27.8347118868        9.2229058778  MEMB      36              0.0000000000
      4197        36  OSM       C11F          -12.9010072019      -25.8484756987        8.4522537731  MEMB      36              0.0000000000
      4198        36  OSM       H11F          -11.8382221540      -26.1656566310        8.5171018419  MEMB      36              0.0000000000
      4199        36  OSM       H11G          -12.7112152171      -24.8102726717        8.7992904461  MEMB      36              0.0000000000
      4200        36  OSM       C12F          -13.6040602626      -25.7240184774        7.0796820171  MEMB      36              0.0000000000
      4201        36  OSM       H12F          -14.5071769855      -25.0772016651        7.0615369324  MEMB      36              0.0000000000
      4202        36  OSM       H12G          -13.8928189654      -26.7503412627        6.7672715794  MEMB      36              0.0000000000
      4203        36  OSM       C13F          -12.6462860745      -25.2670538976        5.9797250163  MEMB      36              0.0000000000
      4204        36  OSM       H13F          -11.9354708029      -26.0826934363        5.7271482469  MEMB      36              0.0000000000
      4205        36  OSM       H13G          -12.0703958387      -24.4489419498        6.4628030397  MEMB      36              0.0000000000
      4206        36  OSM       C14F          -13.4486085775      -24.7516573707        4.7605837619  MEMB      36              0.0000000000
      4207        36  OSM       H14F          -14.2744498397      -24.0567499061        5.0240448427  MEMB      36              0.0000000000
      4208        36  OSM       H14G          -13.8592525374      -25.6749574484        4.2988380549  MEMB      36              0.0000000000
      4209        36  OSM       C15F          -12.5510728391      -23.9634305367        3.6615944901  MEMB      36              0.0000000000
      4210        36  OSM       H15F          -12.0661612482      -24.6453533936        2.9307301205  MEMB      36              0.0000000000
      4211        36  OSM       H15G          -11.7658941438      -23.2952389690        4.0755198571  MEMB      36              0.0000000000
      4212        36  OSM       C16F          -13.4104838963      -23.0592270643        2.7812628906  MEMB      36              0.0000000000
      4213        36  OSM       H16F          -12.6432399075      -22.7253570083        2.0503807009  MEMB      36              0.0000000000
      4214        36  OSM       H16G          -13.6716894936      -22.1500980770        3.3639963592  MEMB      36              0.0000000000
      4215        36  OSM       C17F          -14.5801452852      -23.6523259254        1.9539648599  MEMB      36              0.0000000000
      4216        36  OSM       H17F          -14.9727544273      -22.9294040299        1.2072630672  MEMB      36              0.0000000000
      4217        36  OSM       H17G          -15.3278858589      -23.9047835740        2.7359299210  MEMB      36              0.0000000000
      4218        36  OSM       C18F          -14.3299075764      -24.9562070284        1.1361606172  MEMB      36              0.0000000000
      4219        36  OSM       H18F          -15.2632457067      -25.0491533135        0.5407085625  MEMB      36              0.0000000000
      4220        36  OSM       H18G          -14.1840463974      -25.8233841921        1.8151664434  MEMB      36              0.0000000000
      4221        36  OSM       H18H          -13.4755598710      -24.7878000011        0.4461956599  MEMB      36              0.0000000000
      4222        37  CHL1      C3            -15.5112950561       21.0339123911       17.2948800000  MEMB      37              0.0000000000
      4223        37  CHL1      H3            -16.3613822571       21.7407277025       17.1849400000  MEMB      37              0.0000000000
      4224        37  CHL1      O3            -15.3073925439       20.7723010089       18.7051200000  MEMB      37              0.0000000000
      4225        37  CHL1      H3'           -15.0870412579       21.6693441633       18.9665900000  MEMB      37              0.0000000000
      4226        37  CHL1      C4            -15.9989352588       19.7385442236       16.6214300000  MEMB      37              0.0000000000
      4227        37  CHL1      H4A           -15.5799828957       18.7635307084       16.9502800000  MEMB      37              0.0000000000
      4228        37  CHL1      H4B           -17.0612671953       19.6002239826       16.9157900000  MEMB      37              0.0000000000
      4229        37  CHL1      C5            -15.8994511821       19.6776582828       15.1231300000  MEMB      37              0.0000000000
      4230        37  CHL1      C6            -16.9678135145       19.3807226351       14.3596200000  MEMB      37              0.0000000000
      4231        37  CHL1      H6            -17.9106065524       19.0961650835       14.8496900000  MEMB      37              0.0000000000
      4232        37  CHL1      C7            -16.8918592205       19.2819808647       12.8237700000  MEMB      37              0.0000000000
      4233        37  CHL1      H7A           -17.2800591842       18.3474204265       12.3652600000  MEMB      37              0.0000000000
      4234        37  CHL1      H7B           -17.5583361073       20.0894637554       12.4521500000  MEMB      37              0.0000000000
      4235        37  CHL1      C8            -15.4992905024       19.3242766618       12.2838600000  MEMB      37              0.0000000000
      4236        37  CHL1      H8            -14.9598571234       18.3551601456       12.3482200000  MEMB      37              0.0000000000
      4237        37  CHL1      C14           -15.7496003500       19.6105935602       10.7713500000  MEMB      37              0.0000000000
      4238        37  CHL1      H14           -16.2398539736       20.6069048087       10.7348400000  MEMB      37              0.0000000000
      4239        37  CHL1      C15           -16.6180903120       18.6113739354        9.9403300000  MEMB      37              0.0000000000
      4240        37  CHL1      H15A          -16.4818264618       17.5318606934       10.1648400000  MEMB      37              0.0000000000
      4241        37  CHL1      H15B          -17.7039902206       18.8399025688        9.9943100000  MEMB      37              0.0000000000
      4242        37  CHL1      C16           -16.1460934433       18.9238235668        8.5485800000  MEMB      37              0.0000000000
      4243        37  CHL1      H16A          -15.6973494592       17.9826185759        8.1650800000  MEMB      37              0.0000000000
      4244        37  CHL1      H16B          -16.9284540405       19.2741122341        7.8418100000  MEMB      37              0.0000000000
      4245        37  CHL1      C17           -15.0392364801       19.9933304396        8.5918900000  MEMB      37              0.0000000000
      4246        37  CHL1      H17           -15.5526255322       20.9771973301        8.5394100000  MEMB      37              0.0000000000
      4247        37  CHL1      C13           -14.4251732707       19.9059895341       10.0269900000  MEMB      37              0.0000000000
      4248        37  CHL1      C18           -13.5284825258       18.6534667423       10.0042200000  MEMB      37              0.0000000000
      4249        37  CHL1      H18A          -12.5857774118       18.9035779012        9.4721900000  MEMB      37              0.0000000000
      4250        37  CHL1      H18B          -13.2147863734       18.3874247167       11.0362800000  MEMB      37              0.0000000000
      4251        37  CHL1      H18C          -14.0635298738       17.7350047211        9.6809700000  MEMB      37              0.0000000000
      4252        37  CHL1      C12           -13.8151534578       21.1374719208       10.6546800000  MEMB      37              0.0000000000
      4253        37  CHL1      H12A          -12.8360108881       21.3262198699       10.1648100000  MEMB      37              0.0000000000
      4254        37  CHL1      H12B          -14.4444127084       22.0415043431       10.5095500000  MEMB      37              0.0000000000
      4255        37  CHL1      C11           -13.4604507965       20.9249876876       12.1430200000  MEMB      37              0.0000000000
      4256        37  CHL1      H11A          -12.6205024056       20.1979010386       12.1551000000  MEMB      37              0.0000000000
      4257        37  CHL1      H11B          -12.9955098626       21.8265934221       12.5960700000  MEMB      37              0.0000000000
      4258        37  CHL1      C9            -14.7122906477       20.4821751555       12.9339800000  MEMB      37              0.0000000000
      4259        37  CHL1      H9            -15.3934625341       21.3444266821       12.7700600000  MEMB      37              0.0000000000
      4260        37  CHL1      C10           -14.5903338730       20.2819548516       14.5108300000  MEMB      37              0.0000000000
      4261        37  CHL1      C19           -13.4055849708       19.2809655566       14.6456500000  MEMB      37              0.0000000000
      4262        37  CHL1      H19A          -13.2437552359       18.8919154456       15.6736400000  MEMB      37              0.0000000000
      4263        37  CHL1      H19B          -13.5855448719       18.3464832752       14.0723500000  MEMB      37              0.0000000000
      4264        37  CHL1      H19C          -12.4576402874       19.8101745532       14.4097200000  MEMB      37              0.0000000000
      4265        37  CHL1      C1            -14.2383483542       21.6156390047       15.2163500000  MEMB      37              0.0000000000
      4266        37  CHL1      H1A           -13.2481654065       21.9121699202       14.8090100000  MEMB      37              0.0000000000
      4267        37  CHL1      H1B           -15.0142825221       22.3338448115       14.8751500000  MEMB      37              0.0000000000
      4268        37  CHL1      C2            -14.1645975241       21.5493800736       16.6967800000  MEMB      37              0.0000000000
      4269        37  CHL1      H2A           -13.9909737013       22.5512133171       17.1445600000  MEMB      37              0.0000000000
      4270        37  CHL1      H2B           -13.3709310089       20.8515793731       17.0395300000  MEMB      37              0.0000000000
      4271        37  CHL1      C20           -14.0182371461       19.8528031722        7.3424000000  MEMB      37              0.0000000000
      4272        37  CHL1      H20           -13.3775376832       18.9477123817        7.4105600000  MEMB      37              0.0000000000
      4273        37  CHL1      C21           -13.1466432851       21.1125370046        7.2829900000  MEMB      37              0.0000000000
      4274        37  CHL1      H21A          -12.4691948726       21.1596850910        6.4036900000  MEMB      37              0.0000000000
      4275        37  CHL1      H21B          -12.4628184935       21.2108527555        8.1530800000  MEMB      37              0.0000000000
      4276        37  CHL1      H21C          -13.7068246289       22.0719639617        7.2877700000  MEMB      37              0.0000000000
      4277        37  CHL1      C22           -14.7405159168       19.7101460649        5.9206000000  MEMB      37              0.0000000000
      4278        37  CHL1      H22A          -15.4482994166       18.8541492183        5.8955000000  MEMB      37              0.0000000000
      4279        37  CHL1      H22B          -15.4048843130       20.5925231901        5.8008000000  MEMB      37              0.0000000000
      4280        37  CHL1      C23           -13.8446169402       19.6694763455        4.6062500000  MEMB      37              0.0000000000
      4281        37  CHL1      H23A          -14.4899821221       19.5540573779        3.7093100000  MEMB      37              0.0000000000
      4282        37  CHL1      H23B          -13.2465615800       20.5842059553        4.4064200000  MEMB      37              0.0000000000
      4283        37  CHL1      C24           -12.8953172288       18.4587455703        4.5405100000  MEMB      37              0.0000000000
      4284        37  CHL1      H24A          -11.9753109089       18.6258659336        5.1404900000  MEMB      37              0.0000000000
      4285        37  CHL1      H24B          -13.5014789203       17.6526477633        5.0064400000  MEMB      37              0.0000000000
      4286        37  CHL1      C25           -12.4601748549       18.0518230447        3.0924900000  MEMB      37              0.0000000000
      4287        37  CHL1      H25           -12.0032705056       19.0018257978        2.7416900000  MEMB      37              0.0000000000
      4288        37  CHL1      C26           -11.4555413279       16.9298411513        3.0632500000  MEMB      37              0.0000000000
      4289        37  CHL1      H26A          -11.8776087395       15.9298671918        3.3003900000  MEMB      37              0.0000000000
      4290        37  CHL1      H26B          -10.9628882182       16.8263297761        2.0728400000  MEMB      37              0.0000000000
      4291        37  CHL1      H26C          -10.6308642532       17.1946037104        3.7590400000  MEMB      37              0.0000000000
      4292        37  CHL1      C27           -13.5209985374       17.3573583247        2.2020500000  MEMB      37              0.0000000000
      4293        37  CHL1      H27A          -13.1485034090       17.0617659673        1.1979600000  MEMB      37              0.0000000000
      4294        37  CHL1      H27B          -13.9408414178       16.4583373283        2.7018500000  MEMB      37              0.0000000000
      4295        37  CHL1      H27C          -14.4746240394       17.9103545452        2.0638000000  MEMB      37              0.0000000000
      4296        38  SAPE      N              20.8634738662       14.8178159834       21.0833085567  MEMB      38              0.0000000000
      4297        38  SAPE      HN1            21.3139536102       14.4377473324       21.9401724966  MEMB      38              0.0000000000
      4298        38  SAPE      HN2            20.0233637286       15.4040542914       21.2625837994  MEMB      38              0.0000000000
      4299        38  SAPE      HN3            20.5787262555       14.0254435158       20.4728456106  MEMB      38              0.0000000000
      4300        38  SAPE      C12            21.7905403134       15.5791214920       20.1931118640  MEMB      38              0.0000000000
      4301        38  SAPE      H12A           22.3058465998       14.9017372544       19.4790172232  MEMB      38              0.0000000000
      4302        38  SAPE      H12B           22.5487649994       16.1567715868       20.7638454606  MEMB      38              0.0000000000
      4303        38  SAPE      C11            20.9553728615       16.5713253761       19.4052819263  MEMB      38              0.0000000000
      4304        38  SAPE      H11A           20.3233785853       16.0517311288       18.6536663621  MEMB      38              0.0000000000
      4305        38  SAPE      H11B           21.7623410089       17.0484794140       18.8090877319  MEMB      38              0.0000000000
      4306        38  SAPE      P              18.7464600081       17.9332987018       19.9116501917  MEMB      38              0.0000000000
      4307        38  SAPE      O13            17.9614760711       18.4488195228       21.0562960307  MEMB      38              0.0000000000
      4308        38  SAPE      O14            18.8787909959       18.8885826278       18.7681370671  MEMB      38              0.0000000000
      4309        38  SAPE      O12            20.1654149133       17.4013721071       20.2475620890  MEMB      38              0.0000000000
      4310        38  SAPE      O11            18.0876725695       16.6391753960       19.3346522602  MEMB      38              0.0000000000
      4311        38  SAPE      C1             16.8270468890       16.5730264080       18.6801295546  MEMB      38              0.0000000000
      4312        38  SAPE      HA             16.0904659017       17.1334050614       19.2947395483  MEMB      38              0.0000000000
      4313        38  SAPE      HB             16.9097867575       17.1159649406       17.7143693203  MEMB      38              0.0000000000
      4314        38  SAPE      C2             16.4958107884       15.1120891582       18.3167746822  MEMB      38              0.0000000000
      4315        38  SAPE      HS             16.1625025217       14.5003561101       19.1822278324  MEMB      38              0.0000000000
      4316        38  SAPE      O21            17.7073132850       14.6435296392       17.7457159125  MEMB      38              0.0000000000
      4317        38  SAPE      C21            17.8273343783       13.3538652996       17.5664695088  MEMB      38              0.0000000000
      4318        38  SAPE      O22            17.0039832364       12.4998707635       17.8958921759  MEMB      38              0.0000000000
      4319        38  SAPE      C22            19.1123740267       12.9552638508       16.9403250372  MEMB      38              0.0000000000
      4320        38  SAPE      H2R            19.9329843388       13.6566420431       17.2029808851  MEMB      38              0.0000000000
      4321        38  SAPE      H2S            19.4701972638       11.9831219732       17.3418523720  MEMB      38              0.0000000000
      4322        38  SAPE      C3             15.2903134053       15.1058275127       17.2293842803  MEMB      38              0.0000000000
      4323        38  SAPE      HX             14.4540301701       15.5914361978       17.7763172963  MEMB      38              0.0000000000
      4324        38  SAPE      HY             14.8830688404       14.1042540836       16.9737996170  MEMB      38              0.0000000000
      4325        38  SAPE      O31            15.6235363961       15.8947232230       16.0849494243  MEMB      38              0.0000000000
      4326        38  SAPE      C31            14.7686397186       16.8698859657       15.6380459392  MEMB      38              0.0000000000
      4327        38  SAPE      O32            13.8290749282       17.3052279547       16.2970951058  MEMB      38              0.0000000000
      4328        38  SAPE      C32            15.0849950727       17.1499069140       14.2316537574  MEMB      38              0.0000000000
      4329        38  SAPE      H2X            15.6551723735       16.2900694261       13.8194662812  MEMB      38              0.0000000000
      4330        38  SAPE      H2Y            15.7230454211       18.0577709210       14.1769188551  MEMB      38              0.0000000000
      4331        38  SAPE      C23            18.8950730965       12.8652479056       15.3745366490  MEMB      38              0.0000000000
      4332        38  SAPE      H3R            17.8379073834       12.5788054678       15.1883306230  MEMB      38              0.0000000000
      4333        38  SAPE      H3S            19.5130639382       12.0642944569       14.9153173644  MEMB      38              0.0000000000
      4334        38  SAPE      C24            19.1763941450       14.2106767422       14.6826049396  MEMB      38              0.0000000000
      4335        38  SAPE      H4R            18.6629997280       15.0552211551       15.1900416688  MEMB      38              0.0000000000
      4336        38  SAPE      H4S            18.6653800189       14.3437055965       13.7051139948  MEMB      38              0.0000000000
      4337        38  SAPE      C25            20.6279649483       14.4364525970       14.3899481448  MEMB      38              0.0000000000
      4338        38  SAPE      H5R            21.2614300364       13.5553762731       14.2098747873  MEMB      38              0.0000000000
      4339        38  SAPE      C26            21.2502573738       15.6838883691       14.2491660180  MEMB      38              0.0000000000
      4340        38  SAPE      H6R            22.3103025934       15.6868827306       13.9554060613  MEMB      38              0.0000000000
      4341        38  SAPE      C27            20.4238185938       16.9424033215       14.4267042046  MEMB      38              0.0000000000
      4342        38  SAPE      H7R            20.4084835989       17.2869142774       15.4828284928  MEMB      38              0.0000000000
      4343        38  SAPE      H7S            19.3414947588       16.8135298946       14.2115579477  MEMB      38              0.0000000000
      4344        38  SAPE      C28            21.0324022181       18.1145677907       13.6517191751  MEMB      38              0.0000000000
      4345        38  SAPE      H8R            21.7849555734       18.6864871890       14.2143658827  MEMB      38              0.0000000000
      4346        38  SAPE      C29            20.6014679168       18.5196382321       12.4272906485  MEMB      38              0.0000000000
      4347        38  SAPE      H9R            21.0791565144       19.3800503244       11.9358596068  MEMB      38              0.0000000000
      4348        38  SAPE      C210           19.5104662179       18.0247718619       11.5872738307  MEMB      38              0.0000000000
      4349        38  SAPE      H10R           18.9679202353       17.1471300121       11.9992321946  MEMB      38              0.0000000000
      4350        38  SAPE      H10S           20.0694226312       17.6888233101       10.6878141684  MEMB      38              0.0000000000
      4351        38  SAPE      C211           18.4435878006       19.0354716038       11.2908908884  MEMB      38              0.0000000000
      4352        38  SAPE      H11R           18.1704194932       19.5859648252       12.2032159652  MEMB      38              0.0000000000
      4353        38  SAPE      C212           17.8235851887       19.2010831742       10.1230844074  MEMB      38              0.0000000000
      4354        38  SAPE      H12R           17.0663200049       19.9835806002        9.9673692145  MEMB      38              0.0000000000
      4355        38  SAPE      C213           18.0120961750       18.4269438785        8.7863035102  MEMB      38              0.0000000000
      4356        38  SAPE      H13R           17.1887545444       17.6867262602        8.6940694152  MEMB      38              0.0000000000
      4357        38  SAPE      H13S           18.9234267973       17.8049522546        8.6562117123  MEMB      38              0.0000000000
      4358        38  SAPE      C214           18.0901040657       19.1694059818        7.4833456213  MEMB      38              0.0000000000
      4359        38  SAPE      H14R           19.1038259529       19.5460736997        7.2821256384  MEMB      38              0.0000000000
      4360        38  SAPE      C215           17.0005861166       19.4351301058        6.5926868310  MEMB      38              0.0000000000
      4361        38  SAPE      H15R           17.2357375297       19.9353835520        5.6416615355  MEMB      38              0.0000000000
      4362        38  SAPE      C216           15.5772919321       19.0377673184        6.7869744745  MEMB      38              0.0000000000
      4363        38  SAPE      H16R           14.7642999381       19.7750781766        6.6145279514  MEMB      38              0.0000000000
      4364        38  SAPE      H16S           15.3135794014       18.8296347882        7.8459639218  MEMB      38              0.0000000000
      4365        38  SAPE      C217           15.1750226693       17.7747735053        5.9712556194  MEMB      38              0.0000000000
      4366        38  SAPE      H17R           14.0861796145       17.7114089825        6.1827433622  MEMB      38              0.0000000000
      4367        38  SAPE      H17S           15.8071476788       16.9054178271        6.2522538415  MEMB      38              0.0000000000
      4368        38  SAPE      C218           15.2481048822       17.9165443114        4.4034424950  MEMB      38              0.0000000000
      4369        38  SAPE      H18R           16.2997041499       18.1159529274        4.1056231001  MEMB      38              0.0000000000
      4370        38  SAPE      H18S           14.5597545585       18.7524176012        4.1548256210  MEMB      38              0.0000000000
      4371        38  SAPE      C219           14.7143704940       16.6811254070        3.7181317231  MEMB      38              0.0000000000
      4372        38  SAPE      H19R           13.8279543293       16.4092170971        4.3302215704  MEMB      38              0.0000000000
      4373        38  SAPE      H19S           15.4442333550       15.8486747400        3.8111230738  MEMB      38              0.0000000000
      4374        38  SAPE      C220           14.2756057245       16.7833744859        2.2365587782  MEMB      38              0.0000000000
      4375        38  SAPE      H20R           13.7554941407       17.7573114267        2.1130621021  MEMB      38              0.0000000000
      4376        38  SAPE      H20S           13.6703680257       15.9108606090        1.9098678909  MEMB      38              0.0000000000
      4377        38  SAPE      H20T           15.1826573026       16.7977052779        1.5951749757  MEMB      38              0.0000000000
      4378        38  SAPE      C33            13.7745827110       17.4159482594       13.5219778166  MEMB      38              0.0000000000
      4379        38  SAPE      H3X            13.3716806745       18.2702230601       14.1069613063  MEMB      38              0.0000000000
      4380        38  SAPE      H3Y            13.1235501129       16.5348899289       13.7069472504  MEMB      38              0.0000000000
      4381        38  SAPE      C34            13.8968909602       17.8578610799       12.0325876674  MEMB      38              0.0000000000
      4382        38  SAPE      H4X            14.3874068145       18.8481462590       11.9183494581  MEMB      38              0.0000000000
      4383        38  SAPE      H4Y            12.8834898050       17.8941010609       11.5786867980  MEMB      38              0.0000000000
      4384        38  SAPE      C35            14.7025285481       16.9300276422       11.2304552326  MEMB      38              0.0000000000
      4385        38  SAPE      H5X            15.7028359490       16.7960363302       11.6949469854  MEMB      38              0.0000000000
      4386        38  SAPE      H5Y            14.8281120171       17.3271370417       10.2004781995  MEMB      38              0.0000000000
      4387        38  SAPE      C36            14.0744546492       15.5242401569       11.0546459402  MEMB      38              0.0000000000
      4388        38  SAPE      H6X            13.2489229110       15.7027506630       10.3328763992  MEMB      38              0.0000000000
      4389        38  SAPE      H6Y            13.7558411693       15.2646692996       12.0868424157  MEMB      38              0.0000000000
      4390        38  SAPE      C37            15.1901280767       14.4576283660       10.6159861761  MEMB      38              0.0000000000
      4391        38  SAPE      H7X            15.4259903260       14.6657680355        9.5504493552  MEMB      38              0.0000000000
      4392        38  SAPE      H7Y            14.7561862386       13.4364347853       10.5595985235  MEMB      38              0.0000000000
      4393        38  SAPE      C38            16.4722433919       14.4272963872       11.4793727088  MEMB      38              0.0000000000
      4394        38  SAPE      H8X            16.1474949712       14.3864912200       12.5410669031  MEMB      38              0.0000000000
      4395        38  SAPE      H8Y            17.1834918754       15.2697785545       11.3427322014  MEMB      38              0.0000000000
      4396        38  SAPE      C39            17.2338553794       13.1339373286       11.2906964870  MEMB      38              0.0000000000
      4397        38  SAPE      H9X            16.4748429900       12.3365427177       11.4403061719  MEMB      38              0.0000000000
      4398        38  SAPE      H9Y            18.0852072812       13.0113058829       11.9938915430  MEMB      38              0.0000000000
      4399        38  SAPE      C310           17.8942096634       12.9049663915        9.8854917840  MEMB      38              0.0000000000
      4400        38  SAPE      H10X           17.0880267355       12.5791646148        9.1939403086  MEMB      38              0.0000000000
      4401        38  SAPE      H10Y           18.6481613975       12.0889670413        9.8806655140  MEMB      38              0.0000000000
      4402        38  SAPE      C311           18.3744503845       14.1261336989        9.0872247520  MEMB      38              0.0000000000
      4403        38  SAPE      H11X           19.3096705727       14.5549824877        9.5064776995  MEMB      38              0.0000000000
      4404        38  SAPE      H11Y           17.5879886541       14.9105408456        9.1096837521  MEMB      38              0.0000000000
      4405        38  SAPE      C312           18.8207623369       13.8310599645        7.6429640283  MEMB      38              0.0000000000
      4406        38  SAPE      H12X           17.8602105966       13.5607694691        7.1544928161  MEMB      38              0.0000000000
      4407        38  SAPE      H12Y           19.6840729389       13.1347926459        7.7079824855  MEMB      38              0.0000000000
      4408        38  SAPE      C313           19.2935028292       15.1859186280        6.9592372812  MEMB      38              0.0000000000
      4409        38  SAPE      H13X           20.0386665870       15.8229640760        7.4819464788  MEMB      38              0.0000000000
      4410        38  SAPE      H13Y           18.3012390540       15.6749540364        6.8563866795  MEMB      38              0.0000000000
      4411        38  SAPE      C314           19.7580680367       15.1151328093        5.5069964083  MEMB      38              0.0000000000
      4412        38  SAPE      H14X           20.7691153637       14.6808365668        5.6602645788  MEMB      38              0.0000000000
      4413        38  SAPE      H14Y           19.7415959362       16.1543041515        5.1143480068  MEMB      38              0.0000000000
      4414        38  SAPE      C315           19.0621600449       14.1870486566        4.4787123681  MEMB      38              0.0000000000
      4415        38  SAPE      H15X           17.9681709759       14.3763758755        4.4379184053  MEMB      38              0.0000000000
      4416        38  SAPE      H15Y           19.3465157830       13.2131554357        4.9314763842  MEMB      38              0.0000000000
      4417        38  SAPE      C316           19.7966737180       14.4086744887        3.1168348733  MEMB      38              0.0000000000
      4418        38  SAPE      H16X           20.6999385573       13.7625220961        3.1471696379  MEMB      38              0.0000000000
      4419        38  SAPE      H16Y           19.9842323590       15.4959714914        2.9867270673  MEMB      38              0.0000000000
      4420        38  SAPE      C317           18.9650869524       13.9190644508        1.8767376622  MEMB      38              0.0000000000
      4421        38  SAPE      H17X           18.4293292156       14.6988496613        1.2943117111  MEMB      38              0.0000000000
      4422        38  SAPE      H17Y           18.2756574978       13.1227721966        2.2301872095  MEMB      38              0.0000000000
      4423        38  SAPE      C318           19.9147688127       13.1357259560        0.9160664531  MEMB      38              0.0000000000
      4424        38  SAPE      H18X           19.3038982528       12.5805447397        0.1724737992  MEMB      38              0.0000000000
      4425        38  SAPE      H18Y           20.5988002345       12.4328434556        1.4379653497  MEMB      38              0.0000000000
      4426        38  SAPE      H18Z           20.5185552274       13.8468530680        0.3126921681  MEMB      38              0.0000000000
      4427        39  CHL1      C3             23.1081080760      -12.4321129479       17.3089900000  MEMB      39              0.0000000000
      4428        39  CHL1      H3             22.9482384818      -13.4759669489       16.9638300000  MEMB      39              0.0000000000
      4429        39  CHL1      O3             22.8700211240      -12.3019356521       18.6910100000  MEMB      39              0.0000000000
      4430        39  CHL1      H3'            23.4662136631      -12.9301979435       19.1050600000  MEMB      39              0.0000000000
      4431        39  CHL1      C4             24.5739611043      -12.1111217154       17.0204300000  MEMB      39              0.0000000000
      4432        39  CHL1      H4A            24.8720871035      -11.1183080453       17.4201400000  MEMB      39              0.0000000000
      4433        39  CHL1      H4B            25.1472430544      -12.9655031458       17.4396000000  MEMB      39              0.0000000000
      4434        39  CHL1      C5             24.8380848739      -12.1741225247       15.5330300000  MEMB      39              0.0000000000
      4435        39  CHL1      C6             25.7102258648      -12.9819179466       14.9727400000  MEMB      39              0.0000000000
      4436        39  CHL1      H6             26.2591696441      -13.7051640456       15.5936900000  MEMB      39              0.0000000000
      4437        39  CHL1      C7             26.0881792202      -13.0113775817       13.5220600000  MEMB      39              0.0000000000
      4438        39  CHL1      H7A            27.1946979165      -12.9844513575       13.4260900000  MEMB      39              0.0000000000
      4439        39  CHL1      H7B            25.6948592010      -13.9998490697       13.2018300000  MEMB      39              0.0000000000
      4440        39  CHL1      C8             25.4847036039      -11.9319890218       12.6815500000  MEMB      39              0.0000000000
      4441        39  CHL1      H8             26.2092863238      -11.0986505092       12.8034000000  MEMB      39              0.0000000000
      4442        39  CHL1      C14            25.5625238533      -12.2642990417       11.2109600000  MEMB      39              0.0000000000
      4443        39  CHL1      H14            24.8919767901      -13.1101829564       10.9479500000  MEMB      39              0.0000000000
      4444        39  CHL1      C15            26.9049304116      -12.6451678599       10.5117800000  MEMB      39              0.0000000000
      4445        39  CHL1      H15A           27.7100950580      -12.0271914508       10.9635900000  MEMB      39              0.0000000000
      4446        39  CHL1      H15B           27.0273819469      -13.7124558724       10.7950200000  MEMB      39              0.0000000000
      4447        39  CHL1      C16            26.6119252243      -12.4091069365        9.0018400000  MEMB      39              0.0000000000
      4448        39  CHL1      H16A           27.4511588258      -11.7793782808        8.6365200000  MEMB      39              0.0000000000
      4449        39  CHL1      H16B           26.5613897153      -13.3728747295        8.4514600000  MEMB      39              0.0000000000
      4450        39  CHL1      C17            25.2527043169      -11.6030691870        8.9183200000  MEMB      39              0.0000000000
      4451        39  CHL1      H17            24.4360192040      -12.3559866253        8.8970900000  MEMB      39              0.0000000000
      4452        39  CHL1      C13            25.0456988605      -11.0417281894       10.3794900000  MEMB      39              0.0000000000
      4453        39  CHL1      C18            25.8590731197       -9.7545751815       10.5599200000  MEMB      39              0.0000000000
      4454        39  CHL1      H18A           25.3739704607       -8.9953450824        9.9098700000  MEMB      39              0.0000000000
      4455        39  CHL1      H18B           25.9246103363       -9.2826904324       11.5635900000  MEMB      39              0.0000000000
      4456        39  CHL1      H18C           26.8906650620       -9.9011828408       10.1743700000  MEMB      39              0.0000000000
      4457        39  CHL1      C12            23.5920120898      -10.8784909560       10.6562900000  MEMB      39              0.0000000000
      4458        39  CHL1      H12A           23.0643839844      -10.0771014520       10.0962100000  MEMB      39              0.0000000000
      4459        39  CHL1      H12B           23.1357392539      -11.8902442153       10.6062400000  MEMB      39              0.0000000000
      4460        39  CHL1      C11            23.3909077659      -10.5501075473       12.1287900000  MEMB      39              0.0000000000
      4461        39  CHL1      H11A           23.8952897904       -9.5623512392       12.1939100000  MEMB      39              0.0000000000
      4462        39  CHL1      H11B           22.3105909546      -10.5070245562       12.3844900000  MEMB      39              0.0000000000
      4463        39  CHL1      C9             24.0994841639      -11.5633884413       13.0874500000  MEMB      39              0.0000000000
      4464        39  CHL1      H9             23.5002772416      -12.4964084501       13.0186200000  MEMB      39              0.0000000000
      4465        39  CHL1      C10            23.9450083736      -11.2314962070       14.6446100000  MEMB      39              0.0000000000
      4466        39  CHL1      C19            24.4359671460       -9.8004979917       14.8416300000  MEMB      39              0.0000000000
      4467        39  CHL1      H19A           23.9723246742       -8.9920777191       14.2368000000  MEMB      39              0.0000000000
      4468        39  CHL1      H19B           24.0653196251       -9.5404243168       15.8561800000  MEMB      39              0.0000000000
      4469        39  CHL1      H19C           25.5349208248       -9.6381412491       14.8575900000  MEMB      39              0.0000000000
      4470        39  CHL1      C1             22.4425810377      -11.4153270391       15.0744100000  MEMB      39              0.0000000000
      4471        39  CHL1      H1A            21.8763504123      -10.6326915307       14.5256000000  MEMB      39              0.0000000000
      4472        39  CHL1      H1B            22.1773324911      -12.3679976486       14.5680600000  MEMB      39              0.0000000000
      4473        39  CHL1      C2             22.1886632335      -11.4783394453       16.5227900000  MEMB      39              0.0000000000
      4474        39  CHL1      H2A            21.1235748290      -11.7749435763       16.6320100000  MEMB      39              0.0000000000
      4475        39  CHL1      H2B            22.2232194227      -10.4343115654       16.9011300000  MEMB      39              0.0000000000
      4476        39  CHL1      C20            25.1717674585      -10.6592809289        7.6812100000  MEMB      39              0.0000000000
      4477        39  CHL1      H20            25.9403083037       -9.8574238095        7.7076100000  MEMB      39              0.0000000000
      4478        39  CHL1      C21            23.8609033160       -9.8814171159        7.5496700000  MEMB      39              0.0000000000
      4479        39  CHL1      H21A           23.7958506650       -9.3566211526        6.5726000000  MEMB      39              0.0000000000
      4480        39  CHL1      H21B           23.8808420780       -9.0862767844        8.3253500000  MEMB      39              0.0000000000
      4481        39  CHL1      H21C           22.9380209749      -10.4730231410        7.7302600000  MEMB      39              0.0000000000
      4482        39  CHL1      C22            25.3735390873      -11.5520709686        6.4249200000  MEMB      39              0.0000000000
      4483        39  CHL1      H22A           26.3383786655      -12.0550988911        6.6493700000  MEMB      39              0.0000000000
      4484        39  CHL1      H22B           24.5357579900      -12.2817142916        6.4332300000  MEMB      39              0.0000000000
      4485        39  CHL1      C23            25.5150281755      -10.7328549090        5.1064300000  MEMB      39              0.0000000000
      4486        39  CHL1      H23A           24.5396059896      -10.2090988314        5.0140400000  MEMB      39              0.0000000000
      4487        39  CHL1      H23B           26.3308959239       -9.9790479679        5.1279700000  MEMB      39              0.0000000000
      4488        39  CHL1      C24            25.7142318237      -11.6258944997        3.8841900000  MEMB      39              0.0000000000
      4489        39  CHL1      H24A           26.5534056240      -12.3186236293        4.1083200000  MEMB      39              0.0000000000
      4490        39  CHL1      H24B           24.8261476486      -12.2866143197        3.7889100000  MEMB      39              0.0000000000
      4491        39  CHL1      C25            25.8711009134      -10.8910938389        2.5854700000  MEMB      39              0.0000000000
      4492        39  CHL1      H25            25.1322736754      -10.1091974534        2.3078000000  MEMB      39              0.0000000000
      4493        39  CHL1      C26            27.1421167577      -10.0723585832        2.5529900000  MEMB      39              0.0000000000
      4494        39  CHL1      H26A           27.9128783494      -10.8553056584        2.7180300000  MEMB      39              0.0000000000
      4495        39  CHL1      H26B           27.3569478876       -9.5263369646        1.6095700000  MEMB      39              0.0000000000
      4496        39  CHL1      H26C           27.2247061874       -9.2752847732        3.3225200000  MEMB      39              0.0000000000
      4497        39  CHL1      C27            25.8898049745      -11.7882262364        1.4194100000  MEMB      39              0.0000000000
      4498        39  CHL1      H27A           24.9347719249      -12.2670833722        1.1145700000  MEMB      39              0.0000000000
      4499        39  CHL1      H27B           26.3255117072      -11.2188196582        0.5707400000  MEMB      39              0.0000000000
      4500        39  CHL1      H27C           26.5541398460      -12.6397831339        1.6798500000  MEMB      39              0.0000000000
      4501        40  CHL1      C3             25.9763599045       -4.5370045205       17.3066450000  MEMB      40              0.0000000000
      4502        40  CHL1      H3             26.7760504024       -5.2997242302       17.1923050000  MEMB      40              0.0000000000
      4503        40  CHL1      O3             25.7704442955       -4.3652560995       18.6933550000  MEMB      40              0.0000000000
      4504        40  CHL1      H3'            25.6068288385       -5.2629333464       18.9916950000  MEMB      40              0.0000000000
      4505        40  CHL1      C4             26.5192247646       -3.2265269487       16.6702050000  MEMB      40              0.0000000000
      4506        40  CHL1      H4A            25.7009944089       -2.4784378190       16.7421850000  MEMB      40              0.0000000000
      4507        40  CHL1      H4B            27.3463978194       -2.8462596281       17.3069850000  MEMB      40              0.0000000000
      4508        40  CHL1      C5             26.8119322314       -3.5173103159       15.2368050000  MEMB      40              0.0000000000
      4509        40  CHL1      C6             28.0559185335       -3.5432389111       14.7558950000  MEMB      40              0.0000000000
      4510        40  CHL1      H6             28.7960215916       -3.1695180459       15.4787950000  MEMB      40              0.0000000000
      4511        40  CHL1      C7             28.5299316620       -3.7693505423       13.2984550000  MEMB      40              0.0000000000
      4512        40  CHL1      H7A            29.2083836789       -2.9381415029       13.0101650000  MEMB      40              0.0000000000
      4513        40  CHL1      H7B            29.0555612536       -4.7397483180       13.1704850000  MEMB      40              0.0000000000
      4514        40  CHL1      C8             27.2879267913       -3.6744422114       12.3540950000  MEMB      40              0.0000000000
      4515        40  CHL1      H8             27.0522183274       -2.5888530963       12.3383350000  MEMB      40              0.0000000000
      4516        40  CHL1      C14            27.6561332807       -4.2332733896       11.0351750000  MEMB      40              0.0000000000
      4517        40  CHL1      H14            27.9519321143       -5.2822971131       11.2505250000  MEMB      40              0.0000000000
      4518        40  CHL1      C15            28.8975767427       -3.5754339329       10.3156150000  MEMB      40              0.0000000000
      4519        40  CHL1      H15A           29.2271410033       -2.5178558295       10.4005850000  MEMB      40              0.0000000000
      4520        40  CHL1      H15B           29.8918879290       -3.9317759119       10.6601150000  MEMB      40              0.0000000000
      4521        40  CHL1      C16            28.6344888063       -3.8601201830        8.8291450000  MEMB      40              0.0000000000
      4522        40  CHL1      H16A           28.5672689202       -2.8959374563        8.2812650000  MEMB      40              0.0000000000
      4523        40  CHL1      H16B           29.3586247775       -4.4506211098        8.2281050000  MEMB      40              0.0000000000
      4524        40  CHL1      C17            27.2971766121       -4.7265430815        8.7956850000  MEMB      40              0.0000000000
      4525        40  CHL1      H17            27.6319412610       -5.7568653575        9.0420450000  MEMB      40              0.0000000000
      4526        40  CHL1      C13            26.5111845787       -4.1264792803        9.9933450000  MEMB      40              0.0000000000
      4527        40  CHL1      C18            26.0890595753       -2.6156418610        9.8025350000  MEMB      40              0.0000000000
      4528        40  CHL1      H18A           25.2542196934       -2.4904487161        9.0802450000  MEMB      40              0.0000000000
      4529        40  CHL1      H18B           25.8293386034       -2.0391021143       10.7160250000  MEMB      40              0.0000000000
      4530        40  CHL1      H18C           26.9221737163       -2.0363328071        9.3501750000  MEMB      40              0.0000000000
      4531        40  CHL1      C12            25.3677179063       -4.9673752561       10.5201550000  MEMB      40              0.0000000000
      4532        40  CHL1      H12A           24.4869236246       -4.8793554126        9.8487450000  MEMB      40              0.0000000000
      4533        40  CHL1      H12B           25.7029922089       -6.0264122383       10.5390950000  MEMB      40              0.0000000000
      4534        40  CHL1      C11            24.9601802429       -4.5331327835       11.8857050000  MEMB      40              0.0000000000
      4535        40  CHL1      H11A           24.6113378057       -3.5022064581       11.6625250000  MEMB      40              0.0000000000
      4536        40  CHL1      H11B           24.1804536524       -5.1943335803       12.3206150000  MEMB      40              0.0000000000
      4537        40  CHL1      C9             26.1219858917       -4.4967350985       12.8929250000  MEMB      40              0.0000000000
      4538        40  CHL1      H9             26.4950397893       -5.5413231949       12.9560050000  MEMB      40              0.0000000000
      4539        40  CHL1      C10            25.6101366596       -4.0910948923       14.3541550000  MEMB      40              0.0000000000
      4540        40  CHL1      C19            24.4652189561       -2.9741466278       14.2923050000  MEMB      40              0.0000000000
      4541        40  CHL1      H19A           23.5950865079       -3.4535890155       13.7949850000  MEMB      40              0.0000000000
      4542        40  CHL1      H19B           24.1752282152       -2.5051743929       15.2568250000  MEMB      40              0.0000000000
      4543        40  CHL1      H19C           24.6601612746       -2.1942717755       13.5254350000  MEMB      40              0.0000000000
      4544        40  CHL1      C1             25.0305106380       -5.3631099692       15.0337750000  MEMB      40              0.0000000000
      4545        40  CHL1      H1A            24.1610091711       -5.8999800668       14.5978150000  MEMB      40              0.0000000000
      4546        40  CHL1      H1B            25.8125572610       -6.1513066231       15.0721050000  MEMB      40              0.0000000000
      4547        40  CHL1      C2             24.7785332955       -5.0852676483       16.5663250000  MEMB      40              0.0000000000
      4548        40  CHL1      H2A            24.4707615903       -6.0519136615       17.0193250000  MEMB      40              0.0000000000
      4549        40  CHL1      H2B            23.9149860008       -4.3923585589       16.6584350000  MEMB      40              0.0000000000
      4550        40  CHL1      C20            26.7628476942       -4.9109867552        7.3884150000  MEMB      40              0.0000000000
      4551        40  CHL1      H20            27.6214915622       -5.3401315284        6.8290550000  MEMB      40              0.0000000000
      4552        40  CHL1      C21            26.3766725236       -3.6523266307        6.6658450000  MEMB      40              0.0000000000
      4553        40  CHL1      H21A           25.2981139319       -3.4181896074        6.7931950000  MEMB      40              0.0000000000
      4554        40  CHL1      H21B           26.5588776784       -3.8153741972        5.5820850000  MEMB      40              0.0000000000
      4555        40  CHL1      H21C           26.9330921664       -2.7588267206        7.0213450000  MEMB      40              0.0000000000
      4556        40  CHL1      C22            25.6040618118       -5.9425661094        7.4898750000  MEMB      40              0.0000000000
      4557        40  CHL1      H22A           26.0576876668       -6.8034368710        8.0260150000  MEMB      40              0.0000000000
      4558        40  CHL1      H22B           24.8462864321       -5.3102794878        8.0000850000  MEMB      40              0.0000000000
      4559        40  CHL1      C23            25.0220893509       -6.3963867444        6.1361350000  MEMB      40              0.0000000000
      4560        40  CHL1      H23A           24.2834728139       -7.2194015530        6.2429250000  MEMB      40              0.0000000000
      4561        40  CHL1      H23B           24.3247190986       -5.6311918086        5.7330550000  MEMB      40              0.0000000000
      4562        40  CHL1      C24            26.0876520404       -6.8001793397        5.0807250000  MEMB      40              0.0000000000
      4563        40  CHL1      H24A           26.7012466167       -5.8822956484        4.9570750000  MEMB      40              0.0000000000
      4564        40  CHL1      H24B           26.7609725761       -7.5047186812        5.6141950000  MEMB      40              0.0000000000
      4565        40  CHL1      C25            25.6810023157       -7.3216742845        3.7295850000  MEMB      40              0.0000000000
      4566        40  CHL1      H25            25.0536714018       -8.2227463629        3.8994250000  MEMB      40              0.0000000000
      4567        40  CHL1      C26            24.9743572358       -6.1725004715        3.0263050000  MEMB      40              0.0000000000
      4568        40  CHL1      H26A           25.6532211763       -5.3394350057        2.7443950000  MEMB      40              0.0000000000
      4569        40  CHL1      H26B           24.3713415218       -6.5310773556        2.1648550000  MEMB      40              0.0000000000
      4570        40  CHL1      H26C           24.2093973305       -5.7920351594        3.7365150000  MEMB      40              0.0000000000
      4571        40  CHL1      C27            26.9007280839       -7.7085889749        2.9049050000  MEMB      40              0.0000000000
      4572        40  CHL1      H27A           27.3035237118       -8.5782112978        3.4668950000  MEMB      40              0.0000000000
      4573        40  CHL1      H27B           26.6610335795       -8.0189552666        1.8654150000  MEMB      40              0.0000000000
      4574        40  CHL1      H27C           27.6953381935       -6.9335249362        2.8581950000  MEMB      40              0.0000000000
      4575        41  SOPE      N              23.5084381261        8.7449434363       23.7258558139  MEMB      41              0.0000000000
      4576        41  SOPE      HN1            22.8057230722        9.4357192392       24.0584522928  MEMB      41              0.0000000000
      4577        41  SOPE      HN2            23.8119786365        8.0454275084       24.4330623336  MEMB      41              0.0000000000
      4578        41  SOPE      HN3            24.4207452198        9.2061667719       23.5346265908  MEMB      41              0.0000000000
      4579        41  SOPE      C12            23.1697953045        8.1489195928       22.3641411888  MEMB      41              0.0000000000
      4580        41  SOPE      H12A           22.1061409738        8.3198530409       22.0925861924  MEMB      41              0.0000000000
      4581        41  SOPE      H12B           23.2053229301        7.0491068106       22.5173422657  MEMB      41              0.0000000000
      4582        41  SOPE      C11            24.1261415307        8.5926904081       21.1993806962  MEMB      41              0.0000000000
      4583        41  SOPE      H11A           23.9761284853        8.1426766886       20.1947390914  MEMB      41              0.0000000000
      4584        41  SOPE      H11B           25.1741340727        8.3330281133       21.4613121055  MEMB      41              0.0000000000
      4585        41  SOPE      P              24.8824027394       10.9606719883       20.1652126398  MEMB      41              0.0000000000
      4586        41  SOPE      O13            26.2131026218       10.9904409842       20.7094941293  MEMB      41              0.0000000000
      4587        41  SOPE      O14            24.1656426536       12.2684110815       19.9764191669  MEMB      41              0.0000000000
      4588        41  SOPE      O12            23.9449368775       10.0401808571       21.0745389769  MEMB      41              0.0000000000
      4589        41  SOPE      O11            24.7943537383       10.0477216525       18.7849573881  MEMB      41              0.0000000000
      4590        41  SOPE      C1             25.6780901037       10.5116073456       17.7230170826  MEMB      41              0.0000000000
      4591        41  SOPE      HA             26.6455435546        9.9656603494       17.7402487940  MEMB      41              0.0000000000
      4592        41  SOPE      HB             25.7770830234       11.6181051239       17.7365811188  MEMB      41              0.0000000000
      4593        41  SOPE      C2             25.0583557356       10.1572041770       16.4166428914  MEMB      41              0.0000000000
      4594        41  SOPE      HS             25.5652176312       10.6422920736       15.5551897160  MEMB      41              0.0000000000
      4595        41  SOPE      O21            23.7241698874       10.5687722636       16.3185768857  MEMB      41              0.0000000000
      4596        41  SOPE      C21            23.5011226868       11.8665387370       16.2346597401  MEMB      41              0.0000000000
      4597        41  SOPE      O22            24.2314220135       12.8455407568       16.2903194926  MEMB      41              0.0000000000
      4598        41  SOPE      C22            22.0026138195       12.0050968574       15.8685200208  MEMB      41              0.0000000000
      4599        41  SOPE      H2R            21.6351757083       12.6656837029       16.6827285609  MEMB      41              0.0000000000
      4600        41  SOPE      H2S            21.5764245306       10.9829409183       15.9572945799  MEMB      41              0.0000000000
      4601        41  SOPE      C3             25.0296073137        8.6430964396       16.1551480404  MEMB      41              0.0000000000
      4602        41  SOPE      HX             24.4464674862        8.1192711901       16.9424699763  MEMB      41              0.0000000000
      4603        41  SOPE      HY             26.0292638625        8.2133080660       16.3794015413  MEMB      41              0.0000000000
      4604        41  SOPE      O31            24.5385508715        8.3905223006       14.8194900416  MEMB      41              0.0000000000
      4605        41  SOPE      C31            25.4657274018        8.5097478698       13.8738873419  MEMB      41              0.0000000000
      4606        41  SOPE      O32            26.6569756026        8.4091486793       14.0347866798  MEMB      41              0.0000000000
      4607        41  SOPE      C32            24.8866855993        8.6295344023       12.4884816968  MEMB      41              0.0000000000
      4608        41  SOPE      H2X            25.7143093039        8.2315331517       11.8632180669  MEMB      41              0.0000000000
      4609        41  SOPE      H2Y            24.6137109621        9.6517648133       12.1495852252  MEMB      41              0.0000000000
      4610        41  SOPE      C23            21.7017094871       12.6843019739       14.4744955178  MEMB      41              0.0000000000
      4611        41  SOPE      H3R            22.3301792002       13.5820369883       14.2916868954  MEMB      41              0.0000000000
      4612        41  SOPE      H3S            20.6157718225       12.9165425896       14.5080329375  MEMB      41              0.0000000000
      4613        41  SOPE      C24            21.8707234739       11.7028375138       13.3664218865  MEMB      41              0.0000000000
      4614        41  SOPE      H4R            22.7189142880       10.9884340855       13.4336605304  MEMB      41              0.0000000000
      4615        41  SOPE      H4S            20.9847242400       11.0431390986       13.4852680050  MEMB      41              0.0000000000
      4616        41  SOPE      C25            21.9103079731       12.4353394757       11.9911104908  MEMB      41              0.0000000000
      4617        41  SOPE      H5R            21.4473055901       11.9342081919       11.1142876225  MEMB      41              0.0000000000
      4618        41  SOPE      H5S            21.4855237869       13.4584741562       12.0752209418  MEMB      41              0.0000000000
      4619        41  SOPE      C26            23.3874248391       12.7756593891       11.6802026737  MEMB      41              0.0000000000
      4620        41  SOPE      H6R            23.7433404647       13.5167207815       12.4275123461  MEMB      41              0.0000000000
      4621        41  SOPE      H6S            23.9848003518       11.8439236647       11.7768052551  MEMB      41              0.0000000000
      4622        41  SOPE      C27            23.6456584139       13.3718252530       10.3355365825  MEMB      41              0.0000000000
      4623        41  SOPE      H7R            23.0052535151       12.6943964528        9.7311423219  MEMB      41              0.0000000000
      4624        41  SOPE      H7S            23.4481484430       14.4618964896       10.4195340312  MEMB      41              0.0000000000
      4625        41  SOPE      C28            25.1480617637       13.3812752416       10.0042193003  MEMB      41              0.0000000000
      4626        41  SOPE      H8R            25.2155411758       14.0554566089        9.1237384057  MEMB      41              0.0000000000
      4627        41  SOPE      H8S            25.7177619720       13.8809301304       10.8166893507  MEMB      41              0.0000000000
      4628        41  SOPE      C29            25.7499268816       12.0038143012        9.6409868393  MEMB      41              0.0000000000
      4629        41  SOPE      H91            26.2062928380       11.4382354023       10.4667291815  MEMB      41              0.0000000000
      4630        41  SOPE      C210           25.7695685064       11.5745325332        8.3458850717  MEMB      41              0.0000000000
      4631        41  SOPE      H101           26.0744381720       10.5367689350        8.1456316035  MEMB      41              0.0000000000
      4632        41  SOPE      C211           25.2568988591       12.2349361821        7.0886776792  MEMB      41              0.0000000000
      4633        41  SOPE      H11R           25.5187711890       13.3118053729        7.0105962283  MEMB      41              0.0000000000
      4634        41  SOPE      H11S           24.1504223580       12.1448355026        7.1324099532  MEMB      41              0.0000000000
      4635        41  SOPE      C212           25.7732132641       11.5650539175        5.7718024257  MEMB      41              0.0000000000
      4636        41  SOPE      H12R           25.5995232249       10.4677184784        5.7690438050  MEMB      41              0.0000000000
      4637        41  SOPE      H12S           26.8498945469       11.7044707053        5.5359190304  MEMB      41              0.0000000000
      4638        41  SOPE      C213           24.9450964991       12.0484988343        4.5318061665  MEMB      41              0.0000000000
      4639        41  SOPE      H13R           25.3127189567       13.0627770141        4.2664485443  MEMB      41              0.0000000000
      4640        41  SOPE      H13S           23.8443215931       12.0920530994        4.6757468600  MEMB      41              0.0000000000
      4641        41  SOPE      C214           25.2355532561       11.0902884095        3.3139486961  MEMB      41              0.0000000000
      4642        41  SOPE      H14R           24.8300362026       10.1262661105        3.6888314836  MEMB      41              0.0000000000
      4643        41  SOPE      H14S           26.3305582780       10.9052641221        3.2815425026  MEMB      41              0.0000000000
      4644        41  SOPE      C215           24.5033598564       11.4757944202        1.9944339501  MEMB      41              0.0000000000
      4645        41  SOPE      H15R           25.0964403078       12.3598281062        1.6765331669  MEMB      41              0.0000000000
      4646        41  SOPE      H15S           23.4350392874       11.6948676588        2.2066108667  MEMB      41              0.0000000000
      4647        41  SOPE      C216           24.5162213065       10.3840685433        0.9734062802  MEMB      41              0.0000000000
      4648        41  SOPE      H16R           25.5764561323       10.1030324296        0.7966528392  MEMB      41              0.0000000000
      4649        41  SOPE      H16S           23.9596441283       10.7358525137        0.0785361741  MEMB      41              0.0000000000
      4650        41  SOPE      C217           23.8628975720        9.0953357771        1.4169510454  MEMB      41              0.0000000000
      4651        41  SOPE      H17R           22.9436649840        9.3344845407        1.9932674398  MEMB      41              0.0000000000
      4652        41  SOPE      H17S           24.5305449288        8.5677957841        2.1312829318  MEMB      41              0.0000000000
      4653        41  SOPE      C218           23.4136369670        8.1864694851        0.2700681974  MEMB      41              0.0000000000
      4654        41  SOPE      H18R           24.3515843042        7.9304519734       -0.2675476480  MEMB      41              0.0000000000
      4655        41  SOPE      H18S           22.7213789503        8.6920040873       -0.4367104265  MEMB      41              0.0000000000
      4656        41  SOPE      H18T           22.9079887361        7.2411727188        0.5617092713  MEMB      41              0.0000000000
      4657        41  SOPE      C33            23.7561137312        7.5989455240       12.1158236067  MEMB      41              0.0000000000
      4658        41  SOPE      H3X            23.3870293872        7.0495180467       13.0081391679  MEMB      41              0.0000000000
      4659        41  SOPE      H3Y            24.1066255192        6.8473911668       11.3764805168  MEMB      41              0.0000000000
      4660        41  SOPE      C34            22.4675406421        8.2730861289       11.4545498240  MEMB      41              0.0000000000
      4661        41  SOPE      H4X            22.1013873043        8.9374393895       12.2662685935  MEMB      41              0.0000000000
      4662        41  SOPE      H4Y            21.7346954024        7.4574305222       11.2757625908  MEMB      41              0.0000000000
      4663        41  SOPE      C35            22.7687360948        8.9986637555       10.1430544607  MEMB      41              0.0000000000
      4664        41  SOPE      H5X            23.4212577241        8.2738608191        9.6108916712  MEMB      41              0.0000000000
      4665        41  SOPE      H5Y            23.4177104518        9.8742686662       10.3586226962  MEMB      41              0.0000000000
      4666        41  SOPE      C36            21.6250337280        9.2821519298        9.1498087491  MEMB      41              0.0000000000
      4667        41  SOPE      H6X            20.8120481962        9.8945403368        9.5951801521  MEMB      41              0.0000000000
      4668        41  SOPE      H6Y            21.0863593621        8.3409182867        8.9084999863  MEMB      41              0.0000000000
      4669        41  SOPE      C37            22.0390342470        9.9106687078        7.8108932285  MEMB      41              0.0000000000
      4670        41  SOPE      H7X            22.4571423198       10.9366201873        7.8941416847  MEMB      41              0.0000000000
      4671        41  SOPE      H7Y            21.0785938260       10.1919578354        7.3284499188  MEMB      41              0.0000000000
      4672        41  SOPE      C38            23.0169228837        9.1275017362        6.8788244554  MEMB      41              0.0000000000
      4673        41  SOPE      H8X            24.0122159841        9.2016946150        7.3668899311  MEMB      41              0.0000000000
      4674        41  SOPE      H8Y            23.0515001392        9.5800187903        5.8647465755  MEMB      41              0.0000000000
      4675        41  SOPE      C39            22.7695724415        7.6571111968        6.7344438730  MEMB      41              0.0000000000
      4676        41  SOPE      H9X            22.3481820077        7.2124250377        7.6612694321  MEMB      41              0.0000000000
      4677        41  SOPE      H9Y            23.8061827388        7.2703531185        6.6335560362  MEMB      41              0.0000000000
      4678        41  SOPE      C310           21.9733392966        7.1122909932        5.5460250818  MEMB      41              0.0000000000
      4679        41  SOPE      H10X           21.7314252128        6.0859714621        5.8959765712  MEMB      41              0.0000000000
      4680        41  SOPE      H10Y           22.5000618117        7.0142404768        4.5727460074  MEMB      41              0.0000000000
      4681        41  SOPE      C311           20.5913309842        7.8556777478        5.4625293630  MEMB      41              0.0000000000
      4682        41  SOPE      H11X           20.6531247006        8.8694141342        5.0121504421  MEMB      41              0.0000000000
      4683        41  SOPE      H11Y           20.1645844974        7.9475145983        6.4841825483  MEMB      41              0.0000000000
      4684        41  SOPE      C312           19.7118547289        7.0789692035        4.4576598208  MEMB      41              0.0000000000
      4685        41  SOPE      H12X           18.7130919418        7.5484429998        4.5856753806  MEMB      41              0.0000000000
      4686        41  SOPE      H12Y           19.6834629653        6.0040382590        4.7370130506  MEMB      41              0.0000000000
      4687        41  SOPE      C313           20.0650950744        7.2066240685        3.0193818993  MEMB      41              0.0000000000
      4688        41  SOPE      H13X           20.8045746830        6.4218967664        2.7516239390  MEMB      41              0.0000000000
      4689        41  SOPE      H13Y           20.5763774262        8.1490897481        2.7284001107  MEMB      41              0.0000000000
      4690        41  SOPE      C314           18.8008427261        7.0719804260        2.0389053155  MEMB      41              0.0000000000
      4691        41  SOPE      H14X           17.9593061619        7.4248523643        2.6726398332  MEMB      41              0.0000000000
      4692        41  SOPE      H14Y           18.7094742280        6.0277547363        1.6707134523  MEMB      41              0.0000000000
      4693        41  SOPE      C315           18.8376416484        8.0893228297        0.8065600490  MEMB      41              0.0000000000
      4694        41  SOPE      H15X           17.9344321301        7.7424016127        0.2605029909  MEMB      41              0.0000000000
      4695        41  SOPE      H15Y           19.6220176110        7.7815828531        0.0824254733  MEMB      41              0.0000000000
      4696        41  SOPE      C316           18.8583128960        9.5887924437        1.1027902717  MEMB      41              0.0000000000
      4697        41  SOPE      H16X           18.7509537449       10.0985211751        0.1214779451  MEMB      41              0.0000000000
      4698        41  SOPE      H16Y           19.9036298055        9.8170602478        1.4020002802  MEMB      41              0.0000000000
      4699        41  SOPE      C317           17.8783972579       10.0140084951        2.2268851535  MEMB      41              0.0000000000
      4700        41  SOPE      H17X           18.2452995178        9.6061450704        3.1929862505  MEMB      41              0.0000000000
      4701        41  SOPE      H17Y           16.8878328766        9.5465384447        2.0409430438  MEMB      41              0.0000000000
      4702        41  SOPE      C318           17.6431428813       11.5733560728        2.4054864408  MEMB      41              0.0000000000
      4703        41  SOPE      H18X           17.1266094006       11.9677470825        1.5043933336  MEMB      41              0.0000000000
      4704        41  SOPE      H18Y           18.6185121301       12.0988273566        2.4882842793  MEMB      41              0.0000000000
      4705        41  SOPE      H18Z           17.0816515956       11.8054790093        3.3356301194  MEMB      41              0.0000000000
      4706        42  SLPC      N              17.8259542300      -19.6238271027       16.4137898809  MEMB      42              0.0000000000
      4707        42  SLPC      C13            18.1374105068      -19.4283020122       14.9796829388  MEMB      42              0.0000000000
      4708        42  SLPC      H13A           17.3974924394      -20.0495883906       14.4970603790  MEMB      42              0.0000000000
      4709        42  SLPC      H13B           18.1042738708      -18.3780062076       14.7303224264  MEMB      42              0.0000000000
      4710        42  SLPC      H13C           19.1212245240      -19.8331712804       14.7936968536  MEMB      42              0.0000000000
      4711        42  SLPC      C14            18.2160176360      -20.9557598447       16.8797519247  MEMB      42              0.0000000000
      4712        42  SLPC      H14A           17.4023186103      -21.6557202505       16.7599646233  MEMB      42              0.0000000000
      4713        42  SLPC      H14B           19.0894642186      -21.3532001643       16.3842396029  MEMB      42              0.0000000000
      4714        42  SLPC      H14C           18.0784259612      -20.9039252607       17.9496965997  MEMB      42              0.0000000000
      4715        42  SLPC      C15            16.3641740534      -19.4258901325       16.7471809213  MEMB      42              0.0000000000
      4716        42  SLPC      H15A           15.8302752315      -20.2843014502       16.3670727583  MEMB      42              0.0000000000
      4717        42  SLPC      H15B           16.2659610617      -19.3607782680       17.8207332715  MEMB      42              0.0000000000
      4718        42  SLPC      H15C           16.0727362359      -18.5092573164       16.2560104974  MEMB      42              0.0000000000
      4719        42  SLPC      C12            18.6364595670      -18.6847610885       17.2812089344  MEMB      42              0.0000000000
      4720        42  SLPC      H12A           18.3523834765      -18.8166161026       18.3148021265  MEMB      42              0.0000000000
      4721        42  SLPC      H12B           18.3944953555      -17.6618451307       17.0332245697  MEMB      42              0.0000000000
      4722        42  SLPC      C11            20.1979288750      -18.7514532218       17.3031856570  MEMB      42              0.0000000000
      4723        42  SLPC      H11A           20.6212973019      -17.8269892417       17.7508982677  MEMB      42              0.0000000000
      4724        42  SLPC      H11B           20.5131319505      -18.7220536623       16.2382426124  MEMB      42              0.0000000000
      4725        42  SLPC      P              22.0035046120      -20.6193643565       17.4852135578  MEMB      42              0.0000000000
      4726        42  SLPC      O13            23.0850499660      -19.6093781035       17.4721843968  MEMB      42              0.0000000000
      4727        42  SLPC      O14            22.2114019074      -21.7333978120       18.4382382275  MEMB      42              0.0000000000
      4728        42  SLPC      O12            20.6462418577      -19.9318851481       17.9222002231  MEMB      42              0.0000000000
      4729        42  SLPC      O11            21.7782413928      -21.1650443730       16.0773633336  MEMB      42              0.0000000000
      4730        42  SLPC      C1             21.7710935933      -22.5530054082       15.9502921973  MEMB      42              0.0000000000
      4731        42  SLPC      HA             22.8104005036      -22.9381588543       16.0265722085  MEMB      42              0.0000000000
      4732        42  SLPC      HB             21.0422835928      -23.1128240977       16.5745997047  MEMB      42              0.0000000000
      4733        42  SLPC      C2             21.3489809085      -23.0389934016       14.4717190851  MEMB      42              0.0000000000
      4734        42  SLPC      HS             21.7712761962      -24.0659116723       14.4339491847  MEMB      42              0.0000000000
      4735        42  SLPC      O21            21.6995969843      -22.1329701170       13.4280334251  MEMB      42              0.0000000000
      4736        42  SLPC      C21            22.9877987054      -22.0214514607       13.3012056691  MEMB      42              0.0000000000
      4737        42  SLPC      O22            23.8327643674      -22.7991902674       13.7876933783  MEMB      42              0.0000000000
      4738        42  SLPC      C22            23.3901692376      -20.7728984163       12.4676107194  MEMB      42              0.0000000000
      4739        42  SLPC      H2R            24.4999878178      -20.8212520262       12.4507154022  MEMB      42              0.0000000000
      4740        42  SLPC      H2S            22.9599493816      -20.8410659659       11.4455612094  MEMB      42              0.0000000000
      4741        42  SLPC      C3             19.7218822765      -23.2948026233       14.4484685100  MEMB      42              0.0000000000
      4742        42  SLPC      HX             19.1772225703      -22.6887517279       15.2036964165  MEMB      42              0.0000000000
      4743        42  SLPC      HY             19.5349674099      -24.3330800020       14.7968417944  MEMB      42              0.0000000000
      4744        42  SLPC      O31            19.0065678392      -23.1193700149       13.1673679311  MEMB      42              0.0000000000
      4745        42  SLPC      C31            19.3989736183      -23.8923541129       12.1570443692  MEMB      42              0.0000000000
      4746        42  SLPC      O32            20.2112880752      -24.8264686765       12.1515026424  MEMB      42              0.0000000000
      4747        42  SLPC      C32            18.5588615799      -23.5026602597       10.9783076412  MEMB      42              0.0000000000
      4748        42  SLPC      H2X            17.4696960780      -23.5670923130       11.1878017924  MEMB      42              0.0000000000
      4749        42  SLPC      H2Y            18.7961834236      -24.1307552105       10.0931545514  MEMB      42              0.0000000000
      4750        42  SLPC      C23            23.0762794151      -19.4904099783       13.2272335732  MEMB      42              0.0000000000
      4751        42  SLPC      H3R            23.6755036584      -18.6937963323       12.7366646621  MEMB      42              0.0000000000
      4752        42  SLPC      H3S            23.3582314570      -19.5380351488       14.3008051244  MEMB      42              0.0000000000
      4753        42  SLPC      C24            21.6326580925      -18.9657256022       13.0331028642  MEMB      42              0.0000000000
      4754        42  SLPC      H4R            21.1269879777      -19.1707699837       14.0008713127  MEMB      42              0.0000000000
      4755        42  SLPC      H4S            21.1213521072      -19.5358137178       12.2281889308  MEMB      42              0.0000000000
      4756        42  SLPC      C25            21.5374698345      -17.4207114743       12.6644449467  MEMB      42              0.0000000000
      4757        42  SLPC      H5R            22.2365442919      -17.2858629563       11.8115488390  MEMB      42              0.0000000000
      4758        42  SLPC      H5S            22.0482065456      -16.9112519995       13.5093827957  MEMB      42              0.0000000000
      4759        42  SLPC      C26            20.1545063995      -16.8974374730       12.2714531388  MEMB      42              0.0000000000
      4760        42  SLPC      H6R            20.3526249664      -15.8054178245       12.2208259451  MEMB      42              0.0000000000
      4761        42  SLPC      H6S            19.5832266472      -17.0052444727       13.2182046142  MEMB      42              0.0000000000
      4762        42  SLPC      C27            19.4734942248      -17.6426779716       11.0574097151  MEMB      42              0.0000000000
      4763        42  SLPC      H7R            18.3892205056      -17.8672471815       11.1481854384  MEMB      42              0.0000000000
      4764        42  SLPC      H7S            19.9848628229      -18.6289779279       11.0514280825  MEMB      42              0.0000000000
      4765        42  SLPC      C28            19.4568242922      -16.9023281501        9.7261269004  MEMB      42              0.0000000000
      4766        42  SLPC      H8R            19.0418881048      -15.8792694453        9.8506258831  MEMB      42              0.0000000000
      4767        42  SLPC      H8S            18.8549865050      -17.5289331904        9.0336830837  MEMB      42              0.0000000000
      4768        42  SLPC      C29            20.8962438042      -16.6346976402        9.2839766585  MEMB      42              0.0000000000
      4769        42  SLPC      H9R            21.5256121284      -15.8350721021        9.7017024807  MEMB      42              0.0000000000
      4770        42  SLPC      C210           21.4320143566      -17.5835828157        8.4469518867  MEMB      42              0.0000000000
      4771        42  SLPC      H10R           22.4674069796      -17.3820904356        8.1349216310  MEMB      42              0.0000000000
      4772        42  SLPC      C211           20.8143390688      -18.7871832505        7.8920742561  MEMB      42              0.0000000000
      4773        42  SLPC      H11R           20.8528928317      -18.7004598911        6.7851354198  MEMB      42              0.0000000000
      4774        42  SLPC      H11S           19.7045116073      -18.7699718810        7.9401131218  MEMB      42              0.0000000000
      4775        42  SLPC      C212           21.1819275545      -20.1694730185        8.3991065535  MEMB      42              0.0000000000
      4776        42  SLPC      H12R           20.4648848911      -20.4846310191        9.1714569179  MEMB      42              0.0000000000
      4777        42  SLPC      C213           22.0806877436      -20.9768538430        7.9835469122  MEMB      42              0.0000000000
      4778        42  SLPC      H13R           22.4380074859      -21.8428669442        8.5600404770  MEMB      42              0.0000000000
      4779        42  SLPC      C214           23.0466046581      -20.7586628393        6.8098439724  MEMB      42              0.0000000000
      4780        42  SLPC      H14R           24.0357732066      -21.2420571281        6.9588294244  MEMB      42              0.0000000000
      4781        42  SLPC      H14S           23.1357562644      -19.6756875913        6.5784624856  MEMB      42              0.0000000000
      4782        42  SLPC      C215           22.5080337344      -21.4058461460        5.5015322982  MEMB      42              0.0000000000
      4783        42  SLPC      H15R           21.5748597786      -20.8797000729        5.2071206705  MEMB      42              0.0000000000
      4784        42  SLPC      H15S           22.2065773321      -22.4456276783        5.7511301528  MEMB      42              0.0000000000
      4785        42  SLPC      C216           23.5464333813      -21.2748424058        4.3566743226  MEMB      42              0.0000000000
      4786        42  SLPC      H16R           24.4935658023      -21.7351152374        4.7108063311  MEMB      42              0.0000000000
      4787        42  SLPC      H16S           23.6352069470      -20.1816289045        4.1796862492  MEMB      42              0.0000000000
      4788        42  SLPC      C217           23.0361964849      -21.9605504610        3.0927920289  MEMB      42              0.0000000000
      4789        42  SLPC      H17R           22.5649242037      -22.9489421123        3.2806889820  MEMB      42              0.0000000000
      4790        42  SLPC      H17S           23.9374847929      -22.1735648364        2.4790932103  MEMB      42              0.0000000000
      4791        42  SLPC      C218           21.9899204533      -21.2187745120        2.1903763651  MEMB      42              0.0000000000
      4792        42  SLPC      H18R           22.1924980599      -20.1296999586        2.2752295097  MEMB      42              0.0000000000
      4793        42  SLPC      H18S           20.9579632033      -21.3951246946        2.5622447302  MEMB      42              0.0000000000
      4794        42  SLPC      H18T           21.9767628393      -21.4670306737        1.1075485800  MEMB      42              0.0000000000
      4795        42  SLPC      C33            18.8459127466      -22.0764718732       10.4804319515  MEMB      42              0.0000000000
      4796        42  SLPC      H3X            19.7209319518      -22.2033904580        9.8077105452  MEMB      42              0.0000000000
      4797        42  SLPC      H3Y            19.1474723580      -21.4040568931       11.3118410711  MEMB      42              0.0000000000
      4798        42  SLPC      C34            17.6834563371      -21.4011953255        9.7057525455  MEMB      42              0.0000000000
      4799        42  SLPC      H4X            17.8256900115      -20.3019396079        9.7814337902  MEMB      42              0.0000000000
      4800        42  SLPC      H4Y            16.7587630805      -21.6319032101       10.2767491690  MEMB      42              0.0000000000
      4801        42  SLPC      C35            17.4548993411      -21.8968677774        8.2540813823  MEMB      42              0.0000000000
      4802        42  SLPC      H5X            17.3063381756      -22.9972296767        8.2159475137  MEMB      42              0.0000000000
      4803        42  SLPC      H5Y            18.4044458670      -21.6915530401        7.7150746675  MEMB      42              0.0000000000
      4804        42  SLPC      C36            16.3163075384      -21.2226929685        7.4068230369  MEMB      42              0.0000000000
      4805        42  SLPC      H6X            15.4227141176      -21.0969266766        8.0548932336  MEMB      42              0.0000000000
      4806        42  SLPC      H6Y            16.1335834119      -21.9662822137        6.6018334659  MEMB      42              0.0000000000
      4807        42  SLPC      C37            16.6635493433      -19.8280689530        6.7995660571  MEMB      42              0.0000000000
      4808        42  SLPC      H7X            17.5842545364      -19.8673470489        6.1790178999  MEMB      42              0.0000000000
      4809        42  SLPC      H7Y            16.8695864543      -19.1334393947        7.6418009247  MEMB      42              0.0000000000
      4810        42  SLPC      C38            15.5262066241      -19.1832109772        5.9230087405  MEMB      42              0.0000000000
      4811        42  SLPC      H8X            14.6573032764      -19.0530376241        6.6029965402  MEMB      42              0.0000000000
      4812        42  SLPC      H8Y            15.2232794821      -20.0085018088        5.2437069601  MEMB      42              0.0000000000
      4813        42  SLPC      C39            15.8408963319      -17.9683326107        5.1394571628  MEMB      42              0.0000000000
      4814        42  SLPC      H9X            16.7572640582      -17.4792683096        5.5336747779  MEMB      42              0.0000000000
      4815        42  SLPC      H9Y            15.0203423290      -17.2199644409        5.1703931469  MEMB      42              0.0000000000
      4816        42  SLPC      C310           16.0755454445      -18.2607612474        3.6257008090  MEMB      42              0.0000000000
      4817        42  SLPC      H10X           15.1797630308      -18.6397117587        3.0887735123  MEMB      42              0.0000000000
      4818        42  SLPC      H10Y           16.7777171117      -19.1217192681        3.6309236531  MEMB      42              0.0000000000
      4819        42  SLPC      C311           16.7827979252      -17.1608566007        2.9468476378  MEMB      42              0.0000000000
      4820        42  SLPC      H11X           17.7245977547      -16.8034178978        3.4154326964  MEMB      42              0.0000000000
      4821        42  SLPC      H11Y           16.0633956145      -16.3145967298        2.9218324479  MEMB      42              0.0000000000
      4822        42  SLPC      C312           17.0524348397      -17.4762670340        1.4329425609  MEMB      42              0.0000000000
      4823        42  SLPC      H12X           17.5717923987      -16.5994719189        0.9904285194  MEMB      42              0.0000000000
      4824        42  SLPC      H12Y           16.0923180080      -17.6585751626        0.9044921904  MEMB      42              0.0000000000
      4825        42  SLPC      C313           17.9631950073      -18.6812951493        1.1570422798  MEMB      42              0.0000000000
      4826        42  SLPC      H13X           17.4286119421      -19.4984842477        1.6868954162  MEMB      42              0.0000000000
      4827        42  SLPC      H13Y           18.9006494151      -18.3379609035        1.6445076111  MEMB      42              0.0000000000
      4828        42  SLPC      C314           18.2171447782      -19.0079679737       -0.3266816505  MEMB      42              0.0000000000
      4829        42  SLPC      H14X           18.8524945872      -18.1740935850       -0.6945191060  MEMB      42              0.0000000000
      4830        42  SLPC      H14Y           17.2855138380      -19.0397519932       -0.9311439007  MEMB      42              0.0000000000
      4831        42  SLPC      C315           19.0250577284      -20.3807023702       -0.4958761642  MEMB      42              0.0000000000
      4832        42  SLPC      H15X           19.6170832599      -20.4793787613        0.4390510513  MEMB      42              0.0000000000
      4833        42  SLPC      H15Y           19.6175657780      -20.3245432358       -1.4340129152  MEMB      42              0.0000000000
      4834        42  SLPC      C316           18.1007340077      -21.6471761873       -0.5665497863  MEMB      42              0.0000000000
      4835        42  SLPC      H16X           17.7344065096      -21.9460730648       -1.5719264190  MEMB      42              0.0000000000
      4836        42  SLPC      H16Y           17.1888072096      -21.5882501098        0.0653039549  MEMB      42              0.0000000000
      4837        42  SLPC      C317           18.9377821299      -22.7956206176        0.0227480350  MEMB      42              0.0000000000
      4838        42  SLPC      H17X           18.3208991642      -23.7070857186       -0.1289330043  MEMB      42              0.0000000000
      4839        42  SLPC      H17Y           19.1468481249      -22.6526365094        1.1044918207  MEMB      42              0.0000000000
      4840        42  SLPC      C318           20.2743645556      -23.0209853478       -0.6321700037  MEMB      42              0.0000000000
      4841        42  SLPC      H18X           20.8787547124      -23.7486382499       -0.0494559287  MEMB      42              0.0000000000
      4842        42  SLPC      H18Y           20.8412676658      -22.0681388932       -0.7030608600  MEMB      42              0.0000000000
      4843        42  SLPC      H18Z           20.0893235358      -23.4010431594       -1.6596100988  MEMB      42              0.0000000000
      4844        43  SOPE      N              12.7872812190       23.4323090777       21.8954673951  MEMB      43              0.0000000000
      4845        43  SOPE      HN1            12.0559883918       24.0340374239       21.4656603791  MEMB      43              0.0000000000
      4846        43  SOPE      HN2            13.2964010561       22.8159887188       21.2302259161  MEMB      43              0.0000000000
      4847        43  SOPE      HN3            12.2063816296       22.8271501060       22.5102343663  MEMB      43              0.0000000000
      4848        43  SOPE      C12            13.8260283561       24.1553363124       22.6646802683  MEMB      43              0.0000000000
      4849        43  SOPE      H12A           14.5209040523       23.4398900197       23.1541751992  MEMB      43              0.0000000000
      4850        43  SOPE      H12B           13.2440942525       24.6317398004       23.4824294959  MEMB      43              0.0000000000
      4851        43  SOPE      C11            14.6521031286       25.2993162053       21.8224436156  MEMB      43              0.0000000000
      4852        43  SOPE      H11A           15.5566352096       25.7871769071       22.2445034837  MEMB      43              0.0000000000
      4853        43  SOPE      H11B           13.9648044542       26.1720376545       21.8051538066  MEMB      43              0.0000000000
      4854        43  SOPE      P              16.0061058663       23.5663928728       20.3780914702  MEMB      43              0.0000000000
      4855        43  SOPE      O13            15.4306262055       22.3850467299       21.0781332460  MEMB      43              0.0000000000
      4856        43  SOPE      O14            17.3485347890       23.9830415583       20.7322216483  MEMB      43              0.0000000000
      4857        43  SOPE      O12            15.0305356180       24.7964437827       20.5546922803  MEMB      43              0.0000000000
      4858        43  SOPE      O11            16.0866744195       23.2019246569       18.8742700764  MEMB      43              0.0000000000
      4859        43  SOPE      C1             16.1288726568       24.2485013470       17.8710485386  MEMB      43              0.0000000000
      4860        43  SOPE      HA             16.9235542845       23.9762631388       17.1439387476  MEMB      43              0.0000000000
      4861        43  SOPE      HB             16.3855281581       25.2558186258       18.2631719221  MEMB      43              0.0000000000
      4862        43  SOPE      C2             14.6933359553       24.3591223046       17.1773091368  MEMB      43              0.0000000000
      4863        43  SOPE      HS             13.9296081003       24.4069419027       17.9827617094  MEMB      43              0.0000000000
      4864        43  SOPE      O21            14.4989178198       23.2068022402       16.3838143555  MEMB      43              0.0000000000
      4865        43  SOPE      C21            13.3236526426       22.7645580269       16.2858362798  MEMB      43              0.0000000000
      4866        43  SOPE      O22            12.3405044318       23.1214984726       16.9679898387  MEMB      43              0.0000000000
      4867        43  SOPE      C22            13.4142533038       21.6665152170       15.2376528741  MEMB      43              0.0000000000
      4868        43  SOPE      H2R            13.4676635370       20.6983304608       15.7799506112  MEMB      43              0.0000000000
      4869        43  SOPE      H2S            14.3995818661       21.6431597018       14.7249124078  MEMB      43              0.0000000000
      4870        43  SOPE      C3             14.6592361066       25.5832547848       16.2109144662  MEMB      43              0.0000000000
      4871        43  SOPE      HX             14.9119185366       26.5033854866       16.7799767638  MEMB      43              0.0000000000
      4872        43  SOPE      HY             13.6136517337       25.7448395965       15.8718496442  MEMB      43              0.0000000000
      4873        43  SOPE      O31            15.6498900478       25.5232344281       15.1320565535  MEMB      43              0.0000000000
      4874        43  SOPE      C31            15.2500867599       25.0130527471       14.0195508706  MEMB      43              0.0000000000
      4875        43  SOPE      O32            14.1696796639       24.5963904764       13.7667064180  MEMB      43              0.0000000000
      4876        43  SOPE      C32            16.4056640208       25.0806416089       13.0570642893  MEMB      43              0.0000000000
      4877        43  SOPE      H2X            17.2895980494       24.7661582070       13.6521119660  MEMB      43              0.0000000000
      4878        43  SOPE      H2Y            16.6719346951       26.1427119496       12.8688419682  MEMB      43              0.0000000000
      4879        43  SOPE      C23            12.3158639690       21.5701611394       14.1277981200  MEMB      43              0.0000000000
      4880        43  SOPE      H3R            12.2021335121       22.5577167982       13.6316933119  MEMB      43              0.0000000000
      4881        43  SOPE      H3S            11.3734549771       21.2921508541       14.6463505997  MEMB      43              0.0000000000
      4882        43  SOPE      C24            12.7223182936       20.6052341352       13.0938760101  MEMB      43              0.0000000000
      4883        43  SOPE      H4R            13.4869396953       20.9886014340       12.3848590411  MEMB      43              0.0000000000
      4884        43  SOPE      H4S            13.0349258035       19.6992050309       13.6557559219  MEMB      43              0.0000000000
      4885        43  SOPE      C25            11.5415595824       20.2590710353       12.2176355427  MEMB      43              0.0000000000
      4886        43  SOPE      H5R            11.8670136660       19.5426724720       11.4333044868  MEMB      43              0.0000000000
      4887        43  SOPE      H5S            10.6602639617       19.7868642644       12.7020516608  MEMB      43              0.0000000000
      4888        43  SOPE      C26            11.0107962331       21.5036904963       11.5227847234  MEMB      43              0.0000000000
      4889        43  SOPE      H6R            10.1620798130       21.1978068944       10.8743738144  MEMB      43              0.0000000000
      4890        43  SOPE      H6S            10.6056299958       22.2506964984       12.2384271703  MEMB      43              0.0000000000
      4891        43  SOPE      C27            12.0671000642       22.2338897587       10.7440794378  MEMB      43              0.0000000000
      4892        43  SOPE      H7R            12.6632356491       22.8200054703       11.4757977145  MEMB      43              0.0000000000
      4893        43  SOPE      H7S            12.8105442033       21.5315887287       10.3100461756  MEMB      43              0.0000000000
      4894        43  SOPE      C28            11.5200381924       23.1554457415        9.5837133172  MEMB      43              0.0000000000
      4895        43  SOPE      H8R            10.7341573298       23.7364058177       10.1121045346  MEMB      43              0.0000000000
      4896        43  SOPE      H8S            12.3825681626       23.8198879834        9.3626252930  MEMB      43              0.0000000000
      4897        43  SOPE      C29            11.0111476398       22.4486656597        8.3778273704  MEMB      43              0.0000000000
      4898        43  SOPE      H91            10.0574723589       21.9027232719        8.4273293443  MEMB      43              0.0000000000
      4899        43  SOPE      C210           11.4949525064       22.4552873117        7.1235584883  MEMB      43              0.0000000000
      4900        43  SOPE      H101           10.8859451225       22.0383917425        6.3078940934  MEMB      43              0.0000000000
      4901        43  SOPE      C211           12.7059176730       23.2684114750        6.6562775442  MEMB      43              0.0000000000
      4902        43  SOPE      H11R           13.0889737862       23.9294526703        7.4628833240  MEMB      43              0.0000000000
      4903        43  SOPE      H11S           12.3990075595       23.9289837362        5.8173667374  MEMB      43              0.0000000000
      4904        43  SOPE      C212           13.8145320265       22.2984657594        6.1825064607  MEMB      43              0.0000000000
      4905        43  SOPE      H12R           13.4021275381       21.5002177183        5.5290202800  MEMB      43              0.0000000000
      4906        43  SOPE      H12S           14.1585599843       21.8121556850        7.1203059767  MEMB      43              0.0000000000
      4907        43  SOPE      C213           15.0429586746       23.0907065211        5.5919883689  MEMB      43              0.0000000000
      4908        43  SOPE      H13R           15.7043182994       23.3163129816        6.4557169221  MEMB      43              0.0000000000
      4909        43  SOPE      H13S           14.6258882719       24.0500971665        5.2178994593  MEMB      43              0.0000000000
      4910        43  SOPE      C214           15.7055060027       22.5148708946        4.3283601701  MEMB      43              0.0000000000
      4911        43  SOPE      H14R           16.5068714015       23.1472773368        3.8899576780  MEMB      43              0.0000000000
      4912        43  SOPE      H14S           14.9227776715       22.4784602747        3.5407481096  MEMB      43              0.0000000000
      4913        43  SOPE      C215           16.2234384936       21.0279419492        4.5201642835  MEMB      43              0.0000000000
      4914        43  SOPE      H15R           15.5619134953       20.4665045691        5.2140606388  MEMB      43              0.0000000000
      4915        43  SOPE      H15S           17.2282673646       21.1143132336        4.9861892671  MEMB      43              0.0000000000
      4916        43  SOPE      C216           16.1888071125       20.2826271456        3.1845453589  MEMB      43              0.0000000000
      4917        43  SOPE      H16R           16.7005511493       19.3061181703        3.3219115268  MEMB      43              0.0000000000
      4918        43  SOPE      H16S           16.7451912927       20.9006001665        2.4477492998  MEMB      43              0.0000000000
      4919        43  SOPE      C217           14.7368118855       19.9697580882        2.8137815674  MEMB      43              0.0000000000
      4920        43  SOPE      H17R           14.0788430735       20.8619080514        2.8877157307  MEMB      43              0.0000000000
      4921        43  SOPE      H17S           14.3156405089       19.2920310664        3.5868417405  MEMB      43              0.0000000000
      4922        43  SOPE      C218           14.5277599166       19.4006374911        1.4447697711  MEMB      43              0.0000000000
      4923        43  SOPE      H18R           13.4799208594       19.4321797642        1.0768579882  MEMB      43              0.0000000000
      4924        43  SOPE      H18S           14.9023787546       18.3553306940        1.4085028405  MEMB      43              0.0000000000
      4925        43  SOPE      H18T           15.0331915089       20.0243914042        0.6767912063  MEMB      43              0.0000000000
      4926        43  SOPE      C33            16.3330896461       24.1010185153       11.9338813372  MEMB      43              0.0000000000
      4927        43  SOPE      H3X            15.3866120545       24.2508946785       11.3717091872  MEMB      43              0.0000000000
      4928        43  SOPE      H3Y            16.3798771219       23.0691859243       12.3430923244  MEMB      43              0.0000000000
      4929        43  SOPE      C34            17.3338553704       24.2608816207       10.8126787917  MEMB      43              0.0000000000
      4930        43  SOPE      H4X            17.2530891335       25.1320931588       10.1279976617  MEMB      43              0.0000000000
      4931        43  SOPE      H4Y            17.2462947590       23.3386926326       10.1993097692  MEMB      43              0.0000000000
      4932        43  SOPE      C35            18.8728002211       24.1872888718       11.1538388111  MEMB      43              0.0000000000
      4933        43  SOPE      H5X            18.7415458860       23.5146436836       12.0282767008  MEMB      43              0.0000000000
      4934        43  SOPE      H5Y            19.3022063026       25.1823121940       11.3985019500  MEMB      43              0.0000000000
      4935        43  SOPE      C36            19.7837164256       23.5268622752       10.0690856663  MEMB      43              0.0000000000
      4936        43  SOPE      H6X            19.4660782042       22.4677640524        9.9607435861  MEMB      43              0.0000000000
      4937        43  SOPE      H6Y            20.8449604108       23.4456858158       10.3876639875  MEMB      43              0.0000000000
      4938        43  SOPE      C37            19.6755192362       24.1292889197        8.6322258823  MEMB      43              0.0000000000
      4939        43  SOPE      H7X            20.7214863703       23.9515039942        8.3025796469  MEMB      43              0.0000000000
      4940        43  SOPE      H7Y            19.5559220023       25.2306283308        8.5481509464  MEMB      43              0.0000000000
      4941        43  SOPE      C38            18.7956673194       23.3326965590        7.6904754514  MEMB      43              0.0000000000
      4942        43  SOPE      H8X            17.7200814146       23.5719379893        7.8326009965  MEMB      43              0.0000000000
      4943        43  SOPE      H8Y            18.8183211715       22.2404512535        7.8924853855  MEMB      43              0.0000000000
      4944        43  SOPE      C39            19.2603575599       23.6738737880        6.1849754778  MEMB      43              0.0000000000
      4945        43  SOPE      H9X            18.7496605988       23.1179851391        5.3698082360  MEMB      43              0.0000000000
      4946        43  SOPE      H9Y            20.2998078596       23.2816750550        6.1916543868  MEMB      43              0.0000000000
      4947        43  SOPE      C310           19.1263991459       25.1338041984        5.8552546661  MEMB      43              0.0000000000
      4948        43  SOPE      H10X           19.5937005390       25.8173346800        6.5960212180  MEMB      43              0.0000000000
      4949        43  SOPE      H10Y           18.0440460974       25.3730064239        5.7803202311  MEMB      43              0.0000000000
      4950        43  SOPE      C311           19.8106415524       25.7331156685        4.5633200705  MEMB      43              0.0000000000
      4951        43  SOPE      H11X           20.7907718457       25.2123128265        4.5140268836  MEMB      43              0.0000000000
      4952        43  SOPE      H11Y           19.9293683250       26.8321883699        4.6740668337  MEMB      43              0.0000000000
      4953        43  SOPE      C312           19.1392861681       25.4356247142        3.2452063144  MEMB      43              0.0000000000
      4954        43  SOPE      H12X           18.9214323992       26.3420331705        2.6408185502  MEMB      43              0.0000000000
      4955        43  SOPE      H12Y           18.1367211699       25.0971487715        3.5837602524  MEMB      43              0.0000000000
      4956        43  SOPE      C313           19.8683575572       24.3738966692        2.3546772648  MEMB      43              0.0000000000
      4957        43  SOPE      H13X           20.1825764265       23.5394059339        3.0174082964  MEMB      43              0.0000000000
      4958        43  SOPE      H13Y           20.7873612124       24.7964412965        1.8951017127  MEMB      43              0.0000000000
      4959        43  SOPE      C314           18.9725669063       23.8441542964        1.1821385703  MEMB      43              0.0000000000
      4960        43  SOPE      H14X           18.3797296971       24.7461310877        0.9188840889  MEMB      43              0.0000000000
      4961        43  SOPE      H14Y           18.1560756053       23.2233606732        1.6090790411  MEMB      43              0.0000000000
      4962        43  SOPE      C315           19.6905005634       23.1460568481        0.0427670828  MEMB      43              0.0000000000
      4963        43  SOPE      H15X           20.5211101225       23.7911634381       -0.3153467776  MEMB      43              0.0000000000
      4964        43  SOPE      H15Y           18.9376837225       23.0232624683       -0.7650126356  MEMB      43              0.0000000000
      4965        43  SOPE      C316           20.2747343774       21.7745985283        0.2727580745  MEMB      43              0.0000000000
      4966        43  SOPE      H16X           21.2892842771       21.8427254752        0.7203836775  MEMB      43              0.0000000000
      4967        43  SOPE      H16Y           20.5028266786       21.3936373221       -0.7456530285  MEMB      43              0.0000000000
      4968        43  SOPE      C317           19.4792443996       20.7538451808        1.0575224646  MEMB      43              0.0000000000
      4969        43  SOPE      H17X           19.0197316090       21.0832096428        2.0139156864  MEMB      43              0.0000000000
      4970        43  SOPE      H17Y           20.1218201186       19.8544237995        1.1691405331  MEMB      43              0.0000000000
      4971        43  SOPE      C318           18.2557353603       20.2478813179        0.3490630423  MEMB      43              0.0000000000
      4972        43  SOPE      H18X           18.6106412129       19.6029213395       -0.4830359534  MEMB      43              0.0000000000
      4973        43  SOPE      H18Y           17.6918239754       21.1206033853       -0.0442320439  MEMB      43              0.0000000000
      4974        43  SOPE      H18Z           17.5957091978       19.7489806807        1.0905381321  MEMB      43              0.0000000000
      4975        44  POPC      N             -24.3761529308      -14.8734292496       18.0551244889  MEMB      44              0.0000000000
      4976        44  POPC      C12           -22.9334023066      -15.3676203601       17.7746609152  MEMB      44              0.0000000000
      4977        44  POPC      H12A          -22.3239323922      -14.5057961079       17.5461763399  MEMB      44              0.0000000000
      4978        44  POPC      H12B          -22.9734090841      -15.9729336416       16.8811311568  MEMB      44              0.0000000000
      4979        44  POPC      C13           -24.5223975041      -14.0784844122       19.3274692839  MEMB      44              0.0000000000
      4980        44  POPC      H13A          -25.5655357802      -13.9507988332       19.5763847141  MEMB      44              0.0000000000
      4981        44  POPC      H13B          -24.0512872134      -14.5616405657       20.1706864287  MEMB      44              0.0000000000
      4982        44  POPC      H13C          -24.1977949343      -13.0763312600       19.0893045252  MEMB      44              0.0000000000
      4983        44  POPC      C14           -24.8695661695      -14.0215476910       16.8835854295  MEMB      44              0.0000000000
      4984        44  POPC      H14A          -25.8946644623      -13.7145818374       17.0296871089  MEMB      44              0.0000000000
      4985        44  POPC      H14B          -24.1736386411      -13.1958541101       16.8658368785  MEMB      44              0.0000000000
      4986        44  POPC      H14C          -24.9009898641      -14.6286737810       15.9909431834  MEMB      44              0.0000000000
      4987        44  POPC      C15           -25.1926253294      -16.0833009924       18.0473125557  MEMB      44              0.0000000000
      4988        44  POPC      H15A          -26.2342641563      -15.8448889764       17.8906334816  MEMB      44              0.0000000000
      4989        44  POPC      H15B          -25.0894866862      -16.6409937922       18.9664105515  MEMB      44              0.0000000000
      4990        44  POPC      H15C          -24.8321555061      -16.6671577795       17.2133025985  MEMB      44              0.0000000000
      4991        44  POPC      C11           -22.1241451228      -16.1388288903       18.8623090269  MEMB      44              0.0000000000
      4992        44  POPC      H11A          -21.9964553113      -15.5076894422       19.7676704245  MEMB      44              0.0000000000
      4993        44  POPC      H11B          -21.1345470389      -16.2741663634       18.3757903900  MEMB      44              0.0000000000
      4994        44  POPC      P             -21.7371024273      -18.4280601576       20.0499789365  MEMB      44              0.0000000000
      4995        44  POPC      O13           -21.6832961089      -18.0795323467       21.4791485606  MEMB      44              0.0000000000
      4996        44  POPC      O14           -20.4460654767      -18.5399744485       19.3128185954  MEMB      44              0.0000000000
      4997        44  POPC      O12           -22.7108761185      -17.3559184049       19.2743530781  MEMB      44              0.0000000000
      4998        44  POPC      O11           -22.5651190006      -19.7276819538       19.9332391007  MEMB      44              0.0000000000
      4999        44  POPC      C1            -23.4249683526      -19.9501204915       18.8086746342  MEMB      44              0.0000000000
      5000        44  POPC      HA            -23.7639782250      -19.0790279543       18.2081823845  MEMB      44              0.0000000000
      5001        44  POPC      HB            -24.3650932235      -20.4797792502       19.0731514050  MEMB      44              0.0000000000
      5002        44  POPC      C2            -22.7596795213      -20.8222972475       17.7280104369  MEMB      44              0.0000000000
      5003        44  POPC      HS            -22.4056300563      -21.7470492141       18.2317998633  MEMB      44              0.0000000000
      5004        44  POPC      O21           -21.6856887004      -20.0649537456       17.1150903392  MEMB      44              0.0000000000
      5005        44  POPC      C21           -20.7416287713      -20.7432694617       16.5346551580  MEMB      44              0.0000000000
      5006        44  POPC      O22           -20.5979215885      -21.9492847863       16.3622981902  MEMB      44              0.0000000000
      5007        44  POPC      C22           -19.7104606509      -19.7518183381       15.8698037428  MEMB      44              0.0000000000
      5008        44  POPC      H2R           -19.2244801626      -20.1018192912       14.9340456179  MEMB      44              0.0000000000
      5009        44  POPC      H2S           -18.9398227313      -19.7153010493       16.6692437880  MEMB      44              0.0000000000
      5010        44  POPC      C3            -23.7458117336      -21.3103921271       16.6272697383  MEMB      44              0.0000000000
      5011        44  POPC      HX            -24.7128226217      -21.5441192604       17.1218226366  MEMB      44              0.0000000000
      5012        44  POPC      HY            -23.3783399668      -22.3030548752       16.2897703091  MEMB      44              0.0000000000
      5013        44  POPC      O31           -23.8757307354      -20.2824012631       15.6361332562  MEMB      44              0.0000000000
      5014        44  POPC      C31           -25.0252858881      -20.2737103637       14.9906932771  MEMB      44              0.0000000000
      5015        44  POPC      O32           -25.8754965758      -21.1613135862       14.9950368153  MEMB      44              0.0000000000
      5016        44  POPC      C32           -25.0362042326      -19.0334067273       14.1639417029  MEMB      44              0.0000000000
      5017        44  POPC      H2X           -24.3072929863      -19.0717227799       13.3263610897  MEMB      44              0.0000000000
      5018        44  POPC      H2Y           -24.8920675368      -18.2515414650       14.9399779372  MEMB      44              0.0000000000
      5019        44  POPC      C23           -20.2097261089      -18.3180073431       15.7617006420  MEMB      44              0.0000000000
      5020        44  POPC      H3R           -19.4075727114      -17.6023704439       15.4811031707  MEMB      44              0.0000000000
      5021        44  POPC      H3S           -20.5764697870      -17.9374627863       16.7389445044  MEMB      44              0.0000000000
      5022        44  POPC      C24           -21.3049625117      -18.0852598660       14.6801699184  MEMB      44              0.0000000000
      5023        44  POPC      H4R           -22.2111696677      -17.7853719146       15.2486564470  MEMB      44              0.0000000000
      5024        44  POPC      H4S           -21.6279003023      -19.1112200553       14.4018933503  MEMB      44              0.0000000000
      5025        44  POPC      C25           -20.8875491268      -17.2514218160       13.4797494227  MEMB      44              0.0000000000
      5026        44  POPC      H5R           -19.9295151603      -17.6894952960       13.1267852861  MEMB      44              0.0000000000
      5027        44  POPC      H5S           -20.6136639422      -16.2482439629       13.8708274192  MEMB      44              0.0000000000
      5028        44  POPC      C26           -21.8334804611      -17.2932224594       12.2364097638  MEMB      44              0.0000000000
      5029        44  POPC      H6R           -22.9004775288      -17.2684600025       12.5449955797  MEMB      44              0.0000000000
      5030        44  POPC      H6S           -21.7230785069      -18.2904225011       11.7592049156  MEMB      44              0.0000000000
      5031        44  POPC      C27           -21.5873048670      -16.1331830831       11.2319156719  MEMB      44              0.0000000000
      5032        44  POPC      H7R           -20.5219641205      -15.8316175250       11.1401104515  MEMB      44              0.0000000000
      5033        44  POPC      H7S           -22.1706735096      -15.2886272014       11.6570360015  MEMB      44              0.0000000000
      5034        44  POPC      C28           -22.1700591365      -16.3214915973        9.8083941684  MEMB      44              0.0000000000
      5035        44  POPC      H8R           -22.0898059999      -15.3029925885        9.3718851083  MEMB      44              0.0000000000
      5036        44  POPC      H8S           -23.2524033354      -16.5503762687        9.9106874752  MEMB      44              0.0000000000
      5037        44  POPC      C29           -21.5254116865      -17.3093963432        8.8917176136  MEMB      44              0.0000000000
      5038        44  POPC      H91           -21.9488857722      -18.3189643645        8.9986856353  MEMB      44              0.0000000000
      5039        44  POPC      C210          -20.5524617832      -17.2047819906        8.0030956471  MEMB      44              0.0000000000
      5040        44  POPC      H101          -20.4209551614      -18.1106186832        7.3930420915  MEMB      44              0.0000000000
      5041        44  POPC      C211          -19.7441854839      -15.9401724813        7.7018996576  MEMB      44              0.0000000000
      5042        44  POPC      H11R          -18.6748594682      -16.0949282607        7.9605761656  MEMB      44              0.0000000000
      5043        44  POPC      H11S          -20.0616380603      -15.0908119468        8.3438736797  MEMB      44              0.0000000000
      5044        44  POPC      C212          -19.7610508874      -15.4837382825        6.2405790190  MEMB      44              0.0000000000
      5045        44  POPC      H12R          -18.9992771233      -16.0318574214        5.6459465365  MEMB      44              0.0000000000
      5046        44  POPC      H12S          -19.4709971510      -14.4113458569        6.2277564352  MEMB      44              0.0000000000
      5047        44  POPC      C213          -21.0253191274      -15.8170762282        5.5180238401  MEMB      44              0.0000000000
      5048        44  POPC      H13R          -21.1295577547      -16.9197737759        5.4313450476  MEMB      44              0.0000000000
      5049        44  POPC      H13S          -20.8067451832      -15.5153763670        4.4713511551  MEMB      44              0.0000000000
      5050        44  POPC      C214          -22.3129677464      -15.1328607957        6.0058242113  MEMB      44              0.0000000000
      5051        44  POPC      H14R          -22.2049822931      -14.0488064564        5.7879093026  MEMB      44              0.0000000000
      5052        44  POPC      H14S          -22.4137846576      -15.2296694805        7.1079969399  MEMB      44              0.0000000000
      5053        44  POPC      C215          -23.5378936967      -15.5057834047        5.2021080068  MEMB      44              0.0000000000
      5054        44  POPC      H15R          -24.4080952836      -15.1294529838        5.7812846222  MEMB      44              0.0000000000
      5055        44  POPC      H15S          -23.5183230119      -16.6128412655        5.1106693872  MEMB      44              0.0000000000
      5056        44  POPC      C216          -23.6046843571      -14.9087622520        3.8051033637  MEMB      44              0.0000000000
      5057        44  POPC      H16R          -22.7382678476      -15.3152973526        3.2408578158  MEMB      44              0.0000000000
      5058        44  POPC      H16S          -23.4766972231      -13.8059198006        3.8460700523  MEMB      44              0.0000000000
      5059        44  POPC      C217          -24.9746970555      -15.0703055509        3.0778947395  MEMB      44              0.0000000000
      5060        44  POPC      H17R          -25.7586164020      -14.6180302178        3.7222849449  MEMB      44              0.0000000000
      5061        44  POPC      H17S          -25.3114129449      -16.1214546368        2.9512890081  MEMB      44              0.0000000000
      5062        44  POPC      C218          -24.9153053565      -14.5126356500        1.6988520577  MEMB      44              0.0000000000
      5063        44  POPC      H18R          -24.6378592061      -13.4388312743        1.7643448434  MEMB      44              0.0000000000
      5064        44  POPC      H18S          -25.8543679037      -14.7072799595        1.1379630740  MEMB      44              0.0000000000
      5065        44  POPC      H18T          -24.1803716034      -15.0073874711        1.0284686457  MEMB      44              0.0000000000
      5066        44  POPC      C33           -26.4147121846      -18.8916677706       13.5096869591  MEMB      44              0.0000000000
      5067        44  POPC      H3X           -26.5837067479      -17.8047600477       13.3535031744  MEMB      44              0.0000000000
      5068        44  POPC      H3Y           -27.2381623960      -19.4572106343       13.9959094835  MEMB      44              0.0000000000
      5069        44  POPC      C34           -26.4642671222      -19.4789862882       12.0709809614  MEMB      44              0.0000000000
      5070        44  POPC      H4X           -27.4866346801      -19.2144669748       11.7258505608  MEMB      44              0.0000000000
      5071        44  POPC      H4Y           -26.4014564184      -20.5879932060       12.0490802314  MEMB      44              0.0000000000
      5072        44  POPC      C35           -25.4160314908      -19.0126425518       11.0376094580  MEMB      44              0.0000000000
      5073        44  POPC      H5X           -24.3785109157      -19.3287819759       11.2782914137  MEMB      44              0.0000000000
      5074        44  POPC      H5Y           -25.4258959214      -17.9078733124       11.1546926649  MEMB      44              0.0000000000
      5075        44  POPC      C36           -25.8123730564      -19.4214775493        9.6025493139  MEMB      44              0.0000000000
      5076        44  POPC      H6X           -26.8872659725      -19.2133399531        9.4138573073  MEMB      44              0.0000000000
      5077        44  POPC      H6Y           -25.7430201362      -20.5302954682        9.6083769959  MEMB      44              0.0000000000
      5078        44  POPC      C37           -24.8240057551      -18.8048059188        8.5025938815  MEMB      44              0.0000000000
      5079        44  POPC      H7X           -23.8279211942      -19.2968495279        8.4971354453  MEMB      44              0.0000000000
      5080        44  POPC      H7Y           -24.6416839236      -17.7572296814        8.8245625271  MEMB      44              0.0000000000
      5081        44  POPC      C38           -25.4399574706      -18.6435863673        7.1339646034  MEMB      44              0.0000000000
      5082        44  POPC      H8X           -25.1879674895      -17.7345009161        6.5471202843  MEMB      44              0.0000000000
      5083        44  POPC      H8Y           -26.5452544269      -18.5991047075        7.2372157363  MEMB      44              0.0000000000
      5084        44  POPC      C39           -25.1605837658      -19.9174870448        6.1288847353  MEMB      44              0.0000000000
      5085        44  POPC      H9X           -26.0329650391      -20.1588725181        5.4846751403  MEMB      44              0.0000000000
      5086        44  POPC      H9Y           -25.0011867484      -20.8558665938        6.7019097763  MEMB      44              0.0000000000
      5087        44  POPC      C310          -23.8859613356      -19.7473600785        5.3321915416  MEMB      44              0.0000000000
      5088        44  POPC      H10X          -23.1391466861      -19.4351788681        6.0931979183  MEMB      44              0.0000000000
      5089        44  POPC      H10Y          -23.8224233338      -18.9074095832        4.6077830011  MEMB      44              0.0000000000
      5090        44  POPC      C311          -23.3175640029      -20.9580865586        4.6922124047  MEMB      44              0.0000000000
      5091        44  POPC      H11X          -23.9129912096      -21.1003561197        3.7650950788  MEMB      44              0.0000000000
      5092        44  POPC      H11Y          -23.4023089206      -21.8476182236        5.3524187678  MEMB      44              0.0000000000
      5093        44  POPC      C312          -21.8105318353      -20.8436834382        4.2456975421  MEMB      44              0.0000000000
      5094        44  POPC      H12X          -21.4963489457      -21.8301106561        3.8424962736  MEMB      44              0.0000000000
      5095        44  POPC      H12Y          -21.1997607336      -20.7115234765        5.1642903694  MEMB      44              0.0000000000
      5096        44  POPC      C313          -21.3513698199      -19.5885983593        3.4129429310  MEMB      44              0.0000000000
      5097        44  POPC      H13X          -20.2620935228      -19.6596412539        3.2061793258  MEMB      44              0.0000000000
      5098        44  POPC      H13Y          -21.5801120242      -18.6624895210        3.9824334903  MEMB      44              0.0000000000
      5099        44  POPC      C314          -22.1385595941      -19.4561902147        2.1126503723  MEMB      44              0.0000000000
      5100        44  POPC      H14X          -23.2174911627      -19.3907138533        2.3694386904  MEMB      44              0.0000000000
      5101        44  POPC      H14Y          -21.8662281505      -20.3222759130        1.4722959872  MEMB      44              0.0000000000
      5102        44  POPC      C315          -21.7473492156      -18.1779776650        1.3767447450  MEMB      44              0.0000000000
      5103        44  POPC      H15X          -21.7968912765      -17.4449586944        2.2101400068  MEMB      44              0.0000000000
      5104        44  POPC      H15Y          -22.4816205611      -17.9625837082        0.5712813422  MEMB      44              0.0000000000
      5105        44  POPC      C316          -20.3255443212      -18.1077518517        0.8387105303  MEMB      44              0.0000000000
      5106        44  POPC      H16X          -20.2492335840      -17.2318141323        0.1595702453  MEMB      44              0.0000000000
      5107        44  POPC      H16Y          -20.0451519279      -19.0053626762        0.2471056503  MEMB      44              0.0000000000
      5108        44  POPC      H16Z          -19.5612911802      -17.9273040971        1.6246358496  MEMB      44              0.0000000000
      5109        45  OSM       N               1.8246904230      -30.8360375699       20.2561802504  MEMB      45              0.0000000000
      5110        45  OSM       C15             1.9607123040      -31.6817519346       21.5065997559  MEMB      45              0.0000000000
      5111        45  OSM       H15A            1.6651255467      -31.0708814244       22.3467578044  MEMB      45              0.0000000000
      5112        45  OSM       H15B            2.9951687940      -31.9744228677       21.6097670038  MEMB      45              0.0000000000
      5113        45  OSM       H15C            1.4043355802      -32.5860365517       21.3088269089  MEMB      45              0.0000000000
      5114        45  OSM       C14             3.0054437384      -29.8576478165       20.2402699186  MEMB      45              0.0000000000
      5115        45  OSM       H14A            3.9006249510      -30.4614063199       20.2173289576  MEMB      45              0.0000000000
      5116        45  OSM       H14B            2.9922068909      -29.3004008364       21.1653107962  MEMB      45              0.0000000000
      5117        45  OSM       H14C            2.9319817899      -29.2149090364       19.3754634493  MEMB      45              0.0000000000
      5118        45  OSM       C13             1.8233051687      -31.6883122614       19.0809880202  MEMB      45              0.0000000000
      5119        45  OSM       H13A            2.5218455255      -32.5006059832       19.2174455275  MEMB      45              0.0000000000
      5120        45  OSM       H13B            2.1204177962      -31.1785924991       18.1763834273  MEMB      45              0.0000000000
      5121        45  OSM       H13C            0.8423021123      -32.1244483104       18.9634356360  MEMB      45              0.0000000000
      5122        45  OSM       C12             0.5672878074      -30.0644568228       20.3490292811  MEMB      45              0.0000000000
      5123        45  OSM       H12A           -0.2988672175      -30.6978394739       20.2265464924  MEMB      45              0.0000000000
      5124        45  OSM       H12B            0.5550692825      -29.3142576798       19.5722076365  MEMB      45              0.0000000000
      5125        45  OSM       C11             0.3062237237      -29.3158592610       21.6615314268  MEMB      45              0.0000000000
      5126        45  OSM       H11A            0.3095900256      -29.9946176961       22.5410747868  MEMB      45              0.0000000000
      5127        45  OSM       H11B           -0.7157299122      -28.8985380301       21.5359340487  MEMB      45              0.0000000000
      5128        45  OSM       P               1.0289044947      -26.7833694327       21.6213638303  MEMB      45              0.0000000000
      5129        45  OSM       O13            -0.1276970626      -26.2250415325       22.3845801931  MEMB      45              0.0000000000
      5130        45  OSM       O14             2.3345601243      -26.0805544524       21.7966301882  MEMB      45              0.0000000000
      5131        45  OSM       O11             0.6524489363      -26.9225499204       20.0964329695  MEMB      45              0.0000000000
      5132        45  OSM       O12             1.2624714279      -28.2774763938       22.0063941691  MEMB      45              0.0000000000
      5133        45  OSM       C1S             1.4228082100      -26.2934438917       19.0634084651  MEMB      45              0.0000000000
      5134        45  OSM       H1S             2.4435235631      -26.7318807635       19.0787147099  MEMB      45              0.0000000000
      5135        45  OSM       H1T             1.4747528217      -25.1881869137       19.1635578021  MEMB      45              0.0000000000
      5136        45  OSM       NF              1.6311161386      -26.0783562680       16.5513501163  MEMB      45              0.0000000000
      5137        45  OSM       HNF             1.3113216552      -25.3553823381       15.9438559118  MEMB      45              0.0000000000
      5138        45  OSM       C2S             0.7901921563      -26.5007664994       17.6533979968  MEMB      45              0.0000000000
      5139        45  OSM       H2S             0.4746286757      -27.5557378083       17.5058305936  MEMB      45              0.0000000000
      5140        45  OSM       C3S            -0.4886400532      -25.7537086501       17.4187657138  MEMB      45              0.0000000000
      5141        45  OSM       H3S            -0.2718293946      -24.6781913331       17.2439032712  MEMB      45              0.0000000000
      5142        45  OSM       O3             -1.5078733885      -26.0706611035       18.4405219915  MEMB      45              0.0000000000
      5143        45  OSM       HO3            -1.0918855480      -26.5607061429       19.1535508033  MEMB      45              0.0000000000
      5144        45  OSM       C4S            -1.1219042473      -26.0655633976       16.1049363329  MEMB      45              0.0000000000
      5145        45  OSM       H4S            -0.8585688930      -25.4415303978       15.2381970194  MEMB      45              0.0000000000
      5146        45  OSM       C5S            -1.9773429624      -27.1162262532       15.8363369965  MEMB      45              0.0000000000
      5147        45  OSM       H5S            -2.1301278671      -27.8724273121       16.6204397891  MEMB      45              0.0000000000
      5148        45  OSM       C6S            -2.5691515254      -27.3568815614       14.4717013635  MEMB      45              0.0000000000
      5149        45  OSM       H6S            -3.0830444377      -26.4449758342       14.0993269734  MEMB      45              0.0000000000
      5150        45  OSM       H6T            -3.3900586475      -28.1052886486       14.4895688102  MEMB      45              0.0000000000
      5151        45  OSM       C7S            -1.4338502996      -27.6964156436       13.4692032566  MEMB      45              0.0000000000
      5152        45  OSM       H7S            -0.9346753585      -28.6733691419       13.6444385285  MEMB      45              0.0000000000
      5153        45  OSM       H7T            -0.6232381248      -26.9431046267       13.3704539833  MEMB      45              0.0000000000
      5154        45  OSM       C8S            -1.9983661969      -27.7733331841       12.0199110524  MEMB      45              0.0000000000
      5155        45  OSM       H8S            -2.6935518756      -26.9076220755       11.9801337658  MEMB      45              0.0000000000
      5156        45  OSM       H8T            -2.6464189722      -28.6408000239       11.7712147395  MEMB      45              0.0000000000
      5157        45  OSM       C9S            -0.9507360283      -27.5956513679       10.9528220010  MEMB      45              0.0000000000
      5158        45  OSM       H9S            -0.3999243633      -26.6386710637       11.0757710309  MEMB      45              0.0000000000
      5159        45  OSM       H9T            -1.4623859956      -27.5710104783        9.9669581443  MEMB      45              0.0000000000
      5160        45  OSM       C10S            0.0320330974      -28.7091176673       10.6751625486  MEMB      45              0.0000000000
      5161        45  OSM       H10S           -0.3966170464      -29.7336800517       10.7043505328  MEMB      45              0.0000000000
      5162        45  OSM       H10T            0.9392510493      -28.5605515570       11.2990256252  MEMB      45              0.0000000000
      5163        45  OSM       C11S            0.6265447539      -28.5598908144        9.2528537409  MEMB      45              0.0000000000
      5164        45  OSM       H11S            1.4906842268      -29.2581595109        9.2549928931  MEMB      45              0.0000000000
      5165        45  OSM       H11T            1.0575704823      -27.5442250630        9.1226198843  MEMB      45              0.0000000000
      5166        45  OSM       C12S           -0.3306434310      -28.9277800431        8.1329188149  MEMB      45              0.0000000000
      5167        45  OSM       H12S           -1.1589697330      -28.1979047830        8.0085059723  MEMB      45              0.0000000000
      5168        45  OSM       H12T           -0.7925359780      -29.9242918944        8.3000725139  MEMB      45              0.0000000000
      5169        45  OSM       C13S            0.2881827972      -29.0376792354        6.7213163180  MEMB      45              0.0000000000
      5170        45  OSM       H13S           -0.2892222188      -29.8600374099        6.2473413304  MEMB      45              0.0000000000
      5171        45  OSM       H13T            1.3428784755      -29.3700094241        6.8285291655  MEMB      45              0.0000000000
      5172        45  OSM       C14S            0.2639808249      -27.6880601711        5.9316881563  MEMB      45              0.0000000000
      5173        45  OSM       H14S            1.0984395765      -26.9696395500        6.0795767686  MEMB      45              0.0000000000
      5174        45  OSM       H14T           -0.7035450793      -27.1956185085        6.1677299785  MEMB      45              0.0000000000
      5175        45  OSM       C15S            0.2305249743      -27.9109989273        4.4712157970  MEMB      45              0.0000000000
      5176        45  OSM       H15S           -0.5901636747      -28.6430691837        4.3135302355  MEMB      45              0.0000000000
      5177        45  OSM       H15T            1.1977353845      -28.3889801177        4.2059623173  MEMB      45              0.0000000000
      5178        45  OSM       C16S            0.0086436021      -26.6824441685        3.6776028894  MEMB      45              0.0000000000
      5179        45  OSM       H16S            0.9239838423      -26.0740104332        3.8397203600  MEMB      45              0.0000000000
      5180        45  OSM       H16T           -0.9385610961      -26.1764717313        3.9624131151  MEMB      45              0.0000000000
      5181        45  OSM       C17S           -0.0142009342      -26.9711761950        2.2180403790  MEMB      45              0.0000000000
      5182        45  OSM       H17S           -0.8144718988      -27.7365914331        2.1284454720  MEMB      45              0.0000000000
      5183        45  OSM       H17T            0.9362633713      -27.4568388304        1.9097047595  MEMB      45              0.0000000000
      5184        45  OSM       C18S           -0.3392894808      -25.7877278216        1.3710131298  MEMB      45              0.0000000000
      5185        45  OSM       H18S           -0.2700676559      -26.0887510005        0.3038122975  MEMB      45              0.0000000000
      5186        45  OSM       H18T            0.3869443640      -24.9523826471        1.4664251365  MEMB      45              0.0000000000
      5187        45  OSM       H18U           -1.3324323303      -25.3496709058        1.6078531635  MEMB      45              0.0000000000
      5188        45  OSM       C1F             2.8462546777      -26.5102425061       16.2849686288  MEMB      45              0.0000000000
      5189        45  OSM       OF              3.3491636094      -27.4445703815       16.8794341310  MEMB      45              0.0000000000
      5190        45  OSM       C2F             3.6538608764      -25.6111119017       15.3320966971  MEMB      45              0.0000000000
      5191        45  OSM       H2F             4.5565663150      -25.3691496094       15.9328445804  MEMB      45              0.0000000000
      5192        45  OSM       H2G             3.1012664477      -24.6791715412       15.0862365997  MEMB      45              0.0000000000
      5193        45  OSM       C3F             4.0258106579      -26.4234702517       14.1334835130  MEMB      45              0.0000000000
      5194        45  OSM       H3F             3.1100050593      -26.8579891542       13.6787151001  MEMB      45              0.0000000000
      5195        45  OSM       H3G             4.4727302682      -27.4132296689       14.3679196053  MEMB      45              0.0000000000
      5196        45  OSM       C4F             4.8877855954      -25.6914337446       13.1018122584  MEMB      45              0.0000000000
      5197        45  OSM       H4F             5.8484175497      -25.4798114755       13.6182650258  MEMB      45              0.0000000000
      5198        45  OSM       H4G             4.5686278816      -24.7035342027       12.7061938704  MEMB      45              0.0000000000
      5199        45  OSM       C5F             5.1428564341      -26.4812022964       11.7437818317  MEMB      45              0.0000000000
      5200        45  OSM       H5F             5.4907017505      -27.5360266151       11.7696695599  MEMB      45              0.0000000000
      5201        45  OSM       H5G             6.0302491917      -25.9745766259       11.3076788296  MEMB      45              0.0000000000
      5202        45  OSM       C6F             4.0958131245      -26.4937663886       10.6289360471  MEMB      45              0.0000000000
      5203        45  OSM       H6F             3.5960921133      -25.5124033367       10.4822175079  MEMB      45              0.0000000000
      5204        45  OSM       H6G             3.3996491131      -27.3357671269       10.8307071979  MEMB      45              0.0000000000
      5205        45  OSM       C7F             4.8232750091      -26.6690712073        9.2720319886  MEMB      45              0.0000000000
      5206        45  OSM       H7F             5.4069573961      -25.7352600011        9.1249524936  MEMB      45              0.0000000000
      5207        45  OSM       H7G             3.9473595937      -26.7944434228        8.6001864123  MEMB      45              0.0000000000
      5208        45  OSM       C8F             5.7734203652      -27.8600726251        9.1579875960  MEMB      45              0.0000000000
      5209        45  OSM       H8F             6.5460509903      -27.8234886234        9.9554994354  MEMB      45              0.0000000000
      5210        45  OSM       H8G             6.3318217316      -27.6987224733        8.2111641462  MEMB      45              0.0000000000
      5211        45  OSM       C9F             5.1612557200      -29.2223261673        9.2028805638  MEMB      45              0.0000000000
      5212        45  OSM       H9F             4.6848078010      -29.4453632240       10.1689301020  MEMB      45              0.0000000000
      5213        45  OSM       C10F            5.1451649587      -30.1632632161        8.2719936925  MEMB      45              0.0000000000
      5214        45  OSM       H10F            4.5022986281      -31.0271892667        8.4963919664  MEMB      45              0.0000000000
      5215        45  OSM       C11F            5.7027160563      -30.0259959953        6.8460141281  MEMB      45              0.0000000000
      5216        45  OSM       H11F            6.0561717796      -30.9850630881        6.4106059851  MEMB      45              0.0000000000
      5217        45  OSM       H11G            6.5592263289      -29.3188883221        6.8193655312  MEMB      45              0.0000000000
      5218        45  OSM       C12F            4.6992617006      -29.3641406426        5.8488997573  MEMB      45              0.0000000000
      5219        45  OSM       H12F            4.2222979411      -28.5655066974        6.4563618434  MEMB      45              0.0000000000
      5220        45  OSM       H12G            3.9998647867      -30.1665751663        5.5306794586  MEMB      45              0.0000000000
      5221        45  OSM       C13F            5.3436884513      -28.8440834050        4.5727535719  MEMB      45              0.0000000000
      5222        45  OSM       H13F            5.8943900051      -29.5922304245        3.9633894590  MEMB      45              0.0000000000
      5223        45  OSM       H13G            6.0801152427      -28.0989289607        4.9425390333  MEMB      45              0.0000000000
      5224        45  OSM       C14F            4.2844819272      -28.0365434904        3.7596136119  MEMB      45              0.0000000000
      5225        45  OSM       H14F            3.9731555673      -27.1472188335        4.3482550246  MEMB      45              0.0000000000
      5226        45  OSM       H14G            3.4532521801      -28.7472969003        3.5641450393  MEMB      45              0.0000000000
      5227        45  OSM       C15F            4.8380514383      -27.5962650895        2.3966599384  MEMB      45              0.0000000000
      5228        45  OSM       H15F            5.4695380924      -26.6934932753        2.5400035684  MEMB      45              0.0000000000
      5229        45  OSM       H15G            4.0067068662      -27.2380632974        1.7525479554  MEMB      45              0.0000000000
      5230        45  OSM       C16F            5.4335532381      -28.6188037578        1.4610922213  MEMB      45              0.0000000000
      5231        45  OSM       H16F            4.6115596949      -29.2665673821        1.0881979507  MEMB      45              0.0000000000
      5232        45  OSM       H16G            6.2267746750      -29.2503438343        1.9152709475  MEMB      45              0.0000000000
      5233        45  OSM       C17F            5.9705781909      -28.1023894963        0.0330883401  MEMB      45              0.0000000000
      5234        45  OSM       H17F            6.4491455597      -28.9294238140       -0.5337542854  MEMB      45              0.0000000000
      5235        45  OSM       H17G            6.6857867702      -27.2626845179        0.1661037655  MEMB      45              0.0000000000
      5236        45  OSM       C18F            4.9282488138      -27.4647097336       -0.8823979429  MEMB      45              0.0000000000
      5237        45  OSM       H18F            4.1832696645      -28.1508935600       -1.3389954361  MEMB      45              0.0000000000
      5238        45  OSM       H18G            5.3680130870      -26.9150308767       -1.7419224065  MEMB      45              0.0000000000
      5239        45  OSM       H18H            4.3571056757      -26.7038058036       -0.3086892505  MEMB      45              0.0000000000
      5240        46  OSM       N             -27.4083248094       10.7064669114       21.6857567208  MEMB      46              0.0000000000
      5241        46  OSM       C15           -28.0660818408        9.8614338613       22.7617959865  MEMB      46              0.0000000000
      5242        46  OSM       H15A          -28.0510424057        8.7915573274       22.6150374237  MEMB      46              0.0000000000
      5243        46  OSM       H15B          -29.0940851616       10.1843834231       22.8346841131  MEMB      46              0.0000000000
      5244        46  OSM       H15C          -27.6942316061       10.0869728143       23.7503605665  MEMB      46              0.0000000000
      5245        46  OSM       C14           -25.9438276904       10.4994346184       21.7838273579  MEMB      46              0.0000000000
      5246        46  OSM       H14A          -25.8229733736        9.4349348355       21.6473196174  MEMB      46              0.0000000000
      5247        46  OSM       H14B          -25.5585452477       10.7654781294       22.7570582639  MEMB      46              0.0000000000
      5248        46  OSM       H14C          -25.3138116157       11.0474740497       21.0988948329  MEMB      46              0.0000000000
      5249        46  OSM       C13           -27.9100142840       10.2532901355       20.3392722640  MEMB      46              0.0000000000
      5250        46  OSM       H13A          -28.9884435862       10.2887390026       20.2930793265  MEMB      46              0.0000000000
      5251        46  OSM       H13B          -27.6484573717        9.2462684719       20.0496253143  MEMB      46              0.0000000000
      5252        46  OSM       H13C          -27.4929563534       10.8937746438       19.5762243051  MEMB      46              0.0000000000
      5253        46  OSM       C12           -27.8174522059       12.1295084830       22.0021763973  MEMB      46              0.0000000000
      5254        46  OSM       H12A          -27.5998288222       12.1507650644       23.0598096149  MEMB      46              0.0000000000
      5255        46  OSM       H12B          -28.8873956445       12.2178868191       21.8846590535  MEMB      46              0.0000000000
      5256        46  OSM       C11           -27.1818513547       13.2354984486       21.1028887714  MEMB      46              0.0000000000
      5257        46  OSM       H11A          -27.6925337634       14.2210848360       21.1491914977  MEMB      46              0.0000000000
      5258        46  OSM       H11B          -27.3544409374       12.9050316808       20.0563107561  MEMB      46              0.0000000000
      5259        46  OSM       P             -24.8384611592       13.7111501893       20.2557355400  MEMB      46              0.0000000000
      5260        46  OSM       O13           -23.4690718343       13.8954868976       20.7836677940  MEMB      46              0.0000000000
      5261        46  OSM       O14           -25.0155797965       12.6649883550       19.2334331812  MEMB      46              0.0000000000
      5262        46  OSM       O11           -25.4711158428       15.0755794779       19.5969445044  MEMB      46              0.0000000000
      5263        46  OSM       O12           -25.7930761995       13.3544190074       21.4545014860  MEMB      46              0.0000000000
      5264        46  OSM       C1S           -24.6679324623       15.4719843361       18.4395406053  MEMB      46              0.0000000000
      5265        46  OSM       H1S           -23.5845949225       15.2725855005       18.5842504932  MEMB      46              0.0000000000
      5266        46  OSM       H1T           -24.6785216881       16.5816747185       18.3866648252  MEMB      46              0.0000000000
      5267        46  OSM       NF            -24.3355787077       15.1914108570       16.0358210599  MEMB      46              0.0000000000
      5268        46  OSM       HNF           -24.7838161216       15.7604186936       15.3507498842  MEMB      46              0.0000000000
      5269        46  OSM       C2S           -25.3280617444       14.9570404168       17.0951415718  MEMB      46              0.0000000000
      5270        46  OSM       H2S           -25.5585334233       13.8722693658       17.0282393156  MEMB      46              0.0000000000
      5271        46  OSM       C3S           -26.5920199324       15.8709778849       16.9607643491  MEMB      46              0.0000000000
      5272        46  OSM       H3S           -26.4664352195       16.9048657629       17.3475795989  MEMB      46              0.0000000000
      5273        46  OSM       O3            -27.6398227397       15.2676730764       17.7343977387  MEMB      46              0.0000000000
      5274        46  OSM       HO3           -27.2275511975       14.6725089439       18.3648035756  MEMB      46              0.0000000000
      5275        46  OSM       C4S           -26.9640292833       16.0014974043       15.4884660822  MEMB      46              0.0000000000
      5276        46  OSM       H4S           -26.4721033368       16.8541823120       14.9976123349  MEMB      46              0.0000000000
      5277        46  OSM       C5S           -27.8015568219       15.1592349311       14.8107203217  MEMB      46              0.0000000000
      5278        46  OSM       H5S           -28.3471169930       14.3810766392       15.3646460786  MEMB      46              0.0000000000
      5279        46  OSM       C6S           -28.1431759838       15.3190904395       13.3213757576  MEMB      46              0.0000000000
      5280        46  OSM       H6S           -29.2462192831       15.1991671985       13.2645036911  MEMB      46              0.0000000000
      5281        46  OSM       H6T           -27.6103272206       14.4871303587       12.8132066257  MEMB      46              0.0000000000
      5282        46  OSM       C7S           -27.5947106787       16.5760993792       12.5523903515  MEMB      46              0.0000000000
      5283        46  OSM       H7S           -26.5823025113       16.9465741037       12.8209028662  MEMB      46              0.0000000000
      5284        46  OSM       H7T           -28.2343377701       17.4460742656       12.8138137122  MEMB      46              0.0000000000
      5285        46  OSM       C8S           -27.6456412757       16.4909550609       11.0097254327  MEMB      46              0.0000000000
      5286        46  OSM       H8S           -26.9426998289       15.6628686320       10.7763429053  MEMB      46              0.0000000000
      5287        46  OSM       H8T           -27.3211844019       17.4415581081       10.5349596528  MEMB      46              0.0000000000
      5288        46  OSM       C9S           -28.9990132277       16.1010929718       10.4278741830  MEMB      46              0.0000000000
      5289        46  OSM       H9S           -29.5987229954       16.9979630878       10.6930039300  MEMB      46              0.0000000000
      5290        46  OSM       H9T           -29.4638462352       15.1924640785       10.8667881551  MEMB      46              0.0000000000
      5291        46  OSM       C10S          -28.9240948244       15.9799921434        8.9202608391  MEMB      46              0.0000000000
      5292        46  OSM       H10S          -28.2914843448       16.7927012568        8.5035734078  MEMB      46              0.0000000000
      5293        46  OSM       H10T          -29.9363075082       16.0656050181        8.4703528711  MEMB      46              0.0000000000
      5294        46  OSM       C11S          -28.3352779031       14.5849687537        8.5735928805  MEMB      46              0.0000000000
      5295        46  OSM       H11S          -28.8507801755       13.8277914813        9.2022906253  MEMB      46              0.0000000000
      5296        46  OSM       H11T          -27.2782128534       14.5191452254        8.9091551731  MEMB      46              0.0000000000
      5297        46  OSM       C12S          -28.4919335376       14.2494346484        7.0473554066  MEMB      46              0.0000000000
      5298        46  OSM       H12S          -29.5387357030       14.4075703184        6.7104284137  MEMB      46              0.0000000000
      5299        46  OSM       H12T          -28.3567896006       13.1677903306        6.8326401008  MEMB      46              0.0000000000
      5300        46  OSM       C13S          -27.4188929680       14.9550275081        6.1713091393  MEMB      46              0.0000000000
      5301        46  OSM       H13S          -27.4169115973       16.0456574418        6.3830718534  MEMB      46              0.0000000000
      5302        46  OSM       H13T          -27.7158401108       14.8373443022        5.1072162913  MEMB      46              0.0000000000
      5303        46  OSM       C14S          -25.9576092865       14.3707409494        6.2305274922  MEMB      46              0.0000000000
      5304        46  OSM       H14S          -25.9745904283       13.3241435730        5.8581481948  MEMB      46              0.0000000000
      5305        46  OSM       H14T          -25.5499856547       14.2503793186        7.2570149044  MEMB      46              0.0000000000
      5306        46  OSM       C15S          -24.9825704791       15.1247811149        5.3943408658  MEMB      46              0.0000000000
      5307        46  OSM       H15S          -23.9656998595       14.6780171051        5.4207441958  MEMB      46              0.0000000000
      5308        46  OSM       H15T          -24.8048903932       16.0903559292        5.9143564894  MEMB      46              0.0000000000
      5309        46  OSM       C16S          -25.3729730926       15.3434431979        3.9395516105  MEMB      46              0.0000000000
      5310        46  OSM       H16S          -26.3034373507       15.9341152703        3.7993237673  MEMB      46              0.0000000000
      5311        46  OSM       H16T          -25.3652324859       14.3060452227        3.5419747688  MEMB      46              0.0000000000
      5312        46  OSM       C17S          -24.3684889125       16.1691373507        3.0554223649  MEMB      46              0.0000000000
      5313        46  OSM       H17S          -23.3432983363       15.7659955839        3.1995822112  MEMB      46              0.0000000000
      5314        46  OSM       H17T          -24.2872971126       17.2202489458        3.4059847463  MEMB      46              0.0000000000
      5315        46  OSM       C18S          -24.7980539053       16.1910313369        1.5599563173  MEMB      46              0.0000000000
      5316        46  OSM       H18S          -24.5719052795       17.2225193137        1.2146870290  MEMB      46              0.0000000000
      5317        46  OSM       H18T          -25.9043149611       16.1025486420        1.5082043497  MEMB      46              0.0000000000
      5318        46  OSM       H18U          -24.4393128470       15.4603934899        0.8037853626  MEMB      46              0.0000000000
      5319        46  OSM       C1F           -23.2855770943       14.4750924211       15.7916198982  MEMB      46              0.0000000000
      5320        46  OSM       OF            -22.7590608366       13.6420950173       16.5484921092  MEMB      46              0.0000000000
      5321        46  OSM       C2F           -22.7500000625       14.5939933365       14.3774075027  MEMB      46              0.0000000000
      5322        46  OSM       H2F           -22.5074755904       15.6588198652       14.1733313962  MEMB      46              0.0000000000
      5323        46  OSM       H2G           -23.5781956633       14.3867774962       13.6664400582  MEMB      46              0.0000000000
      5324        46  OSM       C3F           -21.6892027476       13.5618825237       13.9909493907  MEMB      46              0.0000000000
      5325        46  OSM       H3F           -22.1008608077       12.5354208654       13.8849533429  MEMB      46              0.0000000000
      5326        46  OSM       H3G           -20.7924812622       13.6331100972       14.6429758672  MEMB      46              0.0000000000
      5327        46  OSM       C4F           -21.0245447205       13.8464549917       12.6159685996  MEMB      46              0.0000000000
      5328        46  OSM       H4F           -20.2002621512       13.1710978622       12.3016886151  MEMB      46              0.0000000000
      5329        46  OSM       H4G           -20.5892435832       14.8661459835       12.6871299640  MEMB      46              0.0000000000
      5330        46  OSM       C5F           -21.9799722555       13.9504724270       11.3807668587  MEMB      46              0.0000000000
      5331        46  OSM       H5F           -21.3605272880       14.2576656139       10.5111455897  MEMB      46              0.0000000000
      5332        46  OSM       H5G           -22.6350290554       14.7820071572       11.7180671042  MEMB      46              0.0000000000
      5333        46  OSM       C6F           -22.6444462277       12.6217695761       11.1075881286  MEMB      46              0.0000000000
      5334        46  OSM       H6F           -22.9372779826       12.0730749035       12.0281883025  MEMB      46              0.0000000000
      5335        46  OSM       H6G           -21.9019898961       11.8829154699       10.7372174552  MEMB      46              0.0000000000
      5336        46  OSM       C7F           -23.8925052891       12.6209818510       10.1982829505  MEMB      46              0.0000000000
      5337        46  OSM       H7F           -23.5716987627       12.9868771345        9.1995215890  MEMB      46              0.0000000000
      5338        46  OSM       H7G           -24.4886015138       13.4638210186       10.6089076890  MEMB      46              0.0000000000
      5339        46  OSM       C8F           -24.8938432899       11.4529845858       10.2006533929  MEMB      46              0.0000000000
      5340        46  OSM       H8F           -25.3105596793       11.4156695192       11.2298643810  MEMB      46              0.0000000000
      5341        46  OSM       H8G           -24.2446913222       10.5516916763       10.1762886329  MEMB      46              0.0000000000
      5342        46  OSM       C9F           -25.8218665814       11.6785697592        9.0893992649  MEMB      46              0.0000000000
      5343        46  OSM       H9F           -26.4339147058       12.5907107689        9.0311244170  MEMB      46              0.0000000000
      5344        46  OSM       C10F          -26.1064706872       10.8829357096        8.0259252193  MEMB      46              0.0000000000
      5345        46  OSM       H10F          -26.9307049383       11.1000461032        7.3305828435  MEMB      46              0.0000000000
      5346        46  OSM       C11F          -25.4227589529        9.5330602783        7.7500909918  MEMB      46              0.0000000000
      5347        46  OSM       H11F          -25.9887764983        8.7805462833        7.1604571626  MEMB      46              0.0000000000
      5348        46  OSM       H11G          -25.2193046997        8.9903942450        8.6979520433  MEMB      46              0.0000000000
      5349        46  OSM       C12F          -24.0298743925        9.7794557943        6.9399117693  MEMB      46              0.0000000000
      5350        46  OSM       H12F          -23.8938477182        8.8794820927        6.3028373298  MEMB      46              0.0000000000
      5351        46  OSM       H12G          -23.2255566918        9.8385271335        7.7040489168  MEMB      46              0.0000000000
      5352        46  OSM       C13F          -23.8650241598       10.9700160161        6.0298197908  MEMB      46              0.0000000000
      5353        46  OSM       H13F          -23.7711084654       11.8784808088        6.6624274546  MEMB      46              0.0000000000
      5354        46  OSM       H13G          -24.8587509417       10.9418810373        5.5337991511  MEMB      46              0.0000000000
      5355        46  OSM       C14F          -22.8264120299       10.9531775711        4.9083822010  MEMB      46              0.0000000000
      5356        46  OSM       H14F          -22.6388522361        9.8785698027        4.6977627992  MEMB      46              0.0000000000
      5357        46  OSM       H14G          -21.9657897842       11.3824318890        5.4646110437  MEMB      46              0.0000000000
      5358        46  OSM       C15F          -23.1279962167       11.7309214914        3.7060420288  MEMB      46              0.0000000000
      5359        46  OSM       H15F          -22.2893706457       11.7426394338        2.9774192872  MEMB      46              0.0000000000
      5360        46  OSM       H15G          -23.2863897803       12.7892336387        4.0047188718  MEMB      46              0.0000000000
      5361        46  OSM       C16F          -24.4485063995       11.4612511074        2.9658061112  MEMB      46              0.0000000000
      5362        46  OSM       H16F          -24.5836334034       12.0265734443        2.0189829705  MEMB      46              0.0000000000
      5363        46  OSM       H16G          -25.2447218332       11.8309100121        3.6467706315  MEMB      46              0.0000000000
      5364        46  OSM       C17F          -24.8539552362       10.0104853488        2.6713615230  MEMB      46              0.0000000000
      5365        46  OSM       H17F          -25.7631318893        9.9692629699        2.0341651048  MEMB      46              0.0000000000
      5366        46  OSM       H17G          -25.1536026464        9.5083269043        3.6160143441  MEMB      46              0.0000000000
      5367        46  OSM       C18F          -23.7734959347        9.1558501033        1.9362924839  MEMB      46              0.0000000000
      5368        46  OSM       H18F          -23.3025615869        9.7142708221        1.0992079737  MEMB      46              0.0000000000
      5369        46  OSM       H18G          -24.2317889966        8.1897967009        1.6345820945  MEMB      46              0.0000000000
      5370        46  OSM       H18H          -22.9951139523        8.7869471148        2.6379714474  MEMB      46              0.0000000000
      5371        47  CHL1      C3             29.7957732675        4.1385266163       17.3167850000  MEMB      47              0.0000000000
      5372        47  CHL1      H3             29.5614723535        3.0609039621       17.1820350000  MEMB      47              0.0000000000
      5373        47  CHL1      O3             29.8051947376        4.4165773213       18.6832150000  MEMB      47              0.0000000000
      5374        47  CHL1      H3'            29.1511641288        3.8898010592       19.1483450000  MEMB      47              0.0000000000
      5375        47  CHL1      C4             31.1972117976        4.5043390913       16.6641850000  MEMB      47              0.0000000000
      5376        47  CHL1      H4A            31.4711149189        5.5249824899       17.0071150000  MEMB      47              0.0000000000
      5377        47  CHL1      H4B            32.0275547698        3.8521035038       17.0097650000  MEMB      47              0.0000000000
      5378        47  CHL1      C5             31.1763142741        4.4695823148       15.1585650000  MEMB      47              0.0000000000
      5379        47  CHL1      C6             32.0327014961        3.6848580219       14.4690950000  MEMB      47              0.0000000000
      5380        47  CHL1      H6             32.7591351926        3.0445065091       14.9908650000  MEMB      47              0.0000000000
      5381        47  CHL1      C7             32.0210647111        3.6061272221       12.9354550000  MEMB      47              0.0000000000
      5382        47  CHL1      H7A            33.0165827058        3.4098667533       12.4829450000  MEMB      47              0.0000000000
      5383        47  CHL1      H7B            31.4128090762        2.7389132102       12.6003750000  MEMB      47              0.0000000000
      5384        47  CHL1      C8             31.3083408952        4.8241620608       12.2696950000  MEMB      47              0.0000000000
      5385        47  CHL1      H8             31.9933474602        5.6898945729       12.3946550000  MEMB      47              0.0000000000
      5386        47  CHL1      C14            31.1124535927        4.4454639242       10.7782350000  MEMB      47              0.0000000000
      5387        47  CHL1      H14            30.4130343555        3.5858872694       10.8573250000  MEMB      47              0.0000000000
      5388        47  CHL1      C15            32.2608320785        3.9082526109        9.9302750000  MEMB      47              0.0000000000
      5389        47  CHL1      H15A           33.2224109574        4.3657954965       10.2470550000  MEMB      47              0.0000000000
      5390        47  CHL1      H15B           32.3243372392        2.8133929659       10.1079650000  MEMB      47              0.0000000000
      5391        47  CHL1      C16            31.8415834890        4.1751772676        8.4983950000  MEMB      47              0.0000000000
      5392        47  CHL1      H16A           32.6331643937        4.8172038510        8.0562350000  MEMB      47              0.0000000000
      5393        47  CHL1      H16B           31.7238590969        3.4680308914        7.6496350000  MEMB      47              0.0000000000
      5394        47  CHL1      C17            30.4796649373        4.9238604455        8.5449950000  MEMB      47              0.0000000000
      5395        47  CHL1      H17            29.6983766081        4.1372097846        8.6163950000  MEMB      47              0.0000000000
      5396        47  CHL1      C13            30.4089717895        5.5369936373       10.0026150000  MEMB      47              0.0000000000
      5397        47  CHL1      C18            31.2483695766        6.8392024437       10.0037450000  MEMB      47              0.0000000000
      5398        47  CHL1      H18A           30.8666529548        7.4798829296        9.1802550000  MEMB      47              0.0000000000
      5399        47  CHL1      H18B           31.1137115274        7.3596171185       10.9760350000  MEMB      47              0.0000000000
      5400        47  CHL1      H18C           32.3259170966        6.5889600318        9.9007650000  MEMB      47              0.0000000000
      5401        47  CHL1      C12            29.0519019512        5.7792763526       10.5703750000  MEMB      47              0.0000000000
      5402        47  CHL1      H12A           28.6209418286        6.6497258855       10.0310050000  MEMB      47              0.0000000000
      5403        47  CHL1      H12B           28.4162197871        4.8696561796       10.5171550000  MEMB      47              0.0000000000
      5404        47  CHL1      C11            29.1386536696        6.1526735210       12.1042350000  MEMB      47              0.0000000000
      5405        47  CHL1      H11A           29.6248567515        7.1430254681       12.2350450000  MEMB      47              0.0000000000
      5406        47  CHL1      H11B           28.1831987407        6.3362231259       12.6406450000  MEMB      47              0.0000000000
      5407        47  CHL1      C9             29.9080523557        5.0957811164       12.8962650000  MEMB      47              0.0000000000
      5408        47  CHL1      H9             29.3603318185        4.1310834318       12.8355450000  MEMB      47              0.0000000000
      5409        47  CHL1      C10            30.0574118271        5.3216419738       14.3796050000  MEMB      47              0.0000000000
      5410        47  CHL1      C19            30.4295422004        6.7911100698       14.7511750000  MEMB      47              0.0000000000
      5411        47  CHL1      H19A           30.3447015668        6.9946258915       15.8400750000  MEMB      47              0.0000000000
      5412        47  CHL1      H19B           31.4574274598        7.0221242684       14.3984650000  MEMB      47              0.0000000000
      5413        47  CHL1      H19C           29.6573699346        7.4252273401       14.2654250000  MEMB      47              0.0000000000
      5414        47  CHL1      C1             28.6812749018        5.0303544457       15.1107450000  MEMB      47              0.0000000000
      5415        47  CHL1      H1A            27.9953820054        5.8069630098       14.7098250000  MEMB      47              0.0000000000
      5416        47  CHL1      H1B            28.3989555388        4.0121400126       14.7674250000  MEMB      47              0.0000000000
      5417        47  CHL1      C2             28.6959423136        4.9502114732       16.7003050000  MEMB      47              0.0000000000
      5418        47  CHL1      H2A            27.7319326465        4.6085822959       17.1342250000  MEMB      47              0.0000000000
      5419        47  CHL1      H2B            28.8133879489        5.9788235160       17.1033950000  MEMB      47              0.0000000000
      5420        47  CHL1      C20            29.9831008664        5.7920153826        7.3320750000  MEMB      47              0.0000000000
      5421        47  CHL1      H20            30.4974198116        6.7742601766        7.4027050000  MEMB      47              0.0000000000
      5422        47  CHL1      C21            28.4596352068        6.0519447166        7.2975250000  MEMB      47              0.0000000000
      5423        47  CHL1      H21A           28.1360236622        7.0635937814        7.6233550000  MEMB      47              0.0000000000
      5424        47  CHL1      H21B           27.9572651736        5.2641843776        7.8986850000  MEMB      47              0.0000000000
      5425        47  CHL1      H21C           28.0342407877        5.9027208165        6.2820950000  MEMB      47              0.0000000000
      5426        47  CHL1      C22            30.5349855517        5.2373372192        5.9556650000  MEMB      47              0.0000000000
      5427        47  CHL1      H22A           30.2910509696        5.9746233035        5.1611650000  MEMB      47              0.0000000000
      5428        47  CHL1      H22B           31.6338622052        5.1075223082        6.0553750000  MEMB      47              0.0000000000
      5429        47  CHL1      C23            30.0104392188        3.8234842086        5.4943750000  MEMB      47              0.0000000000
      5430        47  CHL1      H23A           30.2210680672        3.0390800365        6.2524550000  MEMB      47              0.0000000000
      5431        47  CHL1      H23B           28.9256773160        3.9864153802        5.3181250000  MEMB      47              0.0000000000
      5432        47  CHL1      C24            30.5005970331        3.3597660551        4.1315650000  MEMB      47              0.0000000000
      5433        47  CHL1      H24A           29.9797269732        2.4251282501        3.8324650000  MEMB      47              0.0000000000
      5434        47  CHL1      H24B           30.4009502451        4.2163047875        3.4310350000  MEMB      47              0.0000000000
      5435        47  CHL1      C25            31.9600360024        3.0127733153        4.1336750000  MEMB      47              0.0000000000
      5436        47  CHL1      H25            32.4981954767        3.7352878084        4.7838150000  MEMB      47              0.0000000000
      5437        47  CHL1      C26            32.2607422856        1.7106220931        4.8469050000  MEMB      47              0.0000000000
      5438        47  CHL1      H26A           31.7394671338        1.5888384207        5.8204350000  MEMB      47              0.0000000000
      5439        47  CHL1      H26B           31.9189446064        0.8347680629        4.2549750000  MEMB      47              0.0000000000
      5440        47  CHL1      H26C           33.3338512178        1.5072911631        5.0504350000  MEMB      47              0.0000000000
      5441        47  CHL1      C27            32.5717073787        2.8523492686        2.6708750000  MEMB      47              0.0000000000
      5442        47  CHL1      H27A           33.6336234534        2.5453824104        2.7822950000  MEMB      47              0.0000000000
      5443        47  CHL1      H27B           31.9086745370        2.1614565263        2.1075150000  MEMB      47              0.0000000000
      5444        47  CHL1      H27C           32.6523121732        3.8360818656        2.1608850000  MEMB      47              0.0000000000
      5445        48  CHL1      C3            -27.4692598283       -9.7659745517       17.3248700000  MEMB      48              0.0000000000
      5446        48  CHL1      H3            -26.4441875701      -10.0964289562       17.0521900000  MEMB      48              0.0000000000
      5447        48  CHL1      O3            -27.7375995717       -9.7712409083       18.6751300000  MEMB      48              0.0000000000
      5448        48  CHL1      H3'           -27.3517015982      -10.5658470637       19.0510100000  MEMB      48              0.0000000000
      5449        48  CHL1      C4            -27.4619900321       -8.3250283160       16.7317400000  MEMB      48              0.0000000000
      5450        48  CHL1      H4A           -28.4717639761       -7.9558456417       17.0117200000  MEMB      48              0.0000000000
      5451        48  CHL1      H4B           -26.8050426675       -7.7343538579       17.4054200000  MEMB      48              0.0000000000
      5452        48  CHL1      C5            -27.0915124226       -8.2608202602       15.2974500000  MEMB      48              0.0000000000
      5453        48  CHL1      C6            -26.0850276697       -7.4947044868       14.8576300000  MEMB      48              0.0000000000
      5454        48  CHL1      H6            -25.5392060536       -6.8324978318       15.5457900000  MEMB      48              0.0000000000
      5455        48  CHL1      C7            -25.7653376632       -7.3303528607       13.4283800000  MEMB      48              0.0000000000
      5456        48  CHL1      H7A           -25.6124245652       -6.2428559547       13.2602000000  MEMB      48              0.0000000000
      5457        48  CHL1      H7B           -24.8369621843       -7.8335117552       13.0830000000  MEMB      48              0.0000000000
      5458        48  CHL1      C8            -26.9257910902       -7.8458675818       12.5325600000  MEMB      48              0.0000000000
      5459        48  CHL1      H8            -27.6986329585       -7.0682698005       12.3526000000  MEMB      48              0.0000000000
      5460        48  CHL1      C14           -26.4382469961       -7.9619339510       11.0974700000  MEMB      48              0.0000000000
      5461        48  CHL1      H14           -25.6181040721       -8.7085087228       11.1631100000  MEMB      48              0.0000000000
      5462        48  CHL1      C15           -25.8103088584       -6.7066786530       10.4681700000  MEMB      48              0.0000000000
      5463        48  CHL1      H15A          -26.3111180298       -5.7250102055       10.6090100000  MEMB      48              0.0000000000
      5464        48  CHL1      H15B          -24.7470241034       -6.6612087962       10.7870300000  MEMB      48              0.0000000000
      5465        48  CHL1      C16           -25.8089177092       -7.0335128856        8.9891700000  MEMB      48              0.0000000000
      5466        48  CHL1      H16A          -26.3795412518       -6.1960356850        8.5338200000  MEMB      48              0.0000000000
      5467        48  CHL1      H16B          -24.7647730170       -7.2365850023        8.6684600000  MEMB      48              0.0000000000
      5468        48  CHL1      C17           -26.5499053229       -8.3871844261        8.8633500000  MEMB      48              0.0000000000
      5469        48  CHL1      H17           -25.7989003071       -9.1826767422        9.0570000000  MEMB      48              0.0000000000
      5470        48  CHL1      C13           -27.4634594344       -8.4582722654       10.0737400000  MEMB      48              0.0000000000
      5471        48  CHL1      C18           -28.5759259281       -7.3421742744        9.9243000000  MEMB      48              0.0000000000
      5472        48  CHL1      H18A          -28.1895381766       -6.3027717999        9.9925500000  MEMB      48              0.0000000000
      5473        48  CHL1      H18B          -29.0175102767       -7.3632519619        8.9050400000  MEMB      48              0.0000000000
      5474        48  CHL1      H18C          -29.4006256897       -7.4191543617       10.6647500000  MEMB      48              0.0000000000
      5475        48  CHL1      C12           -28.0129575671       -9.8495856929       10.5486800000  MEMB      48              0.0000000000
      5476        48  CHL1      H12A          -28.8645714278      -10.1662978468        9.9093300000  MEMB      48              0.0000000000
      5477        48  CHL1      H12B          -27.2678647963      -10.6522102077       10.3616800000  MEMB      48              0.0000000000
      5478        48  CHL1      C11           -28.4847576243       -9.8866501234       11.9753400000  MEMB      48              0.0000000000
      5479        48  CHL1      H11A          -29.4197507619       -9.2871513706       12.0017200000  MEMB      48              0.0000000000
      5480        48  CHL1      H11B          -28.6529326408      -10.9473220478       12.2599800000  MEMB      48              0.0000000000
      5481        48  CHL1      C9            -27.5290881137       -9.2145827719       12.9989900000  MEMB      48              0.0000000000
      5482        48  CHL1      H9            -26.5881347455       -9.8015829307       13.0650500000  MEMB      48              0.0000000000
      5483        48  CHL1      C10           -28.0105693079       -9.1593863759       14.4464400000  MEMB      48              0.0000000000
      5484        48  CHL1      C19           -29.3732630664       -8.4546510240       14.5838000000  MEMB      48              0.0000000000
      5485        48  CHL1      H19A          -29.8587317066       -8.5210996312       15.5809100000  MEMB      48              0.0000000000
      5486        48  CHL1      H19B          -29.3541759709       -7.4387446480       14.1344600000  MEMB      48              0.0000000000
      5487        48  CHL1      H19C          -30.0731467260       -9.0855922659       13.9952600000  MEMB      48              0.0000000000
      5488        48  CHL1      C1            -28.1151379611      -10.6084583557       15.0442200000  MEMB      48              0.0000000000
      5489        48  CHL1      H1A           -28.8408727979      -11.2117649230       14.4580000000  MEMB      48              0.0000000000
      5490        48  CHL1      H1B           -27.1716916543      -11.1857724081       14.9396400000  MEMB      48              0.0000000000
      5491        48  CHL1      C2            -28.4479504542      -10.6639825531       16.5112100000  MEMB      48              0.0000000000
      5492        48  CHL1      H2A           -28.3241855662      -11.6454536607       17.0169100000  MEMB      48              0.0000000000
      5493        48  CHL1      H2B           -29.5053036601      -10.3531865924       16.6516700000  MEMB      48              0.0000000000
      5494        48  CHL1      C20           -27.1004425034       -8.6076813126        7.4108900000  MEMB      48              0.0000000000
      5495        48  CHL1      H20           -27.7007865720       -7.6873457048        7.2469400000  MEMB      48              0.0000000000
      5496        48  CHL1      C21           -27.8934290578       -9.8908372672        7.0884200000  MEMB      48              0.0000000000
      5497        48  CHL1      H21A          -28.9287751909       -9.8644108633        7.4905100000  MEMB      48              0.0000000000
      5498        48  CHL1      H21B          -27.2987227542      -10.7700725416        7.4164200000  MEMB      48              0.0000000000
      5499        48  CHL1      H21C          -28.1695541908      -10.0041605209        6.0182600000  MEMB      48              0.0000000000
      5500        48  CHL1      C22           -25.9566172993       -8.5516879079        6.3355600000  MEMB      48              0.0000000000
      5501        48  CHL1      H22A          -25.3831282966       -7.6130978131        6.4920200000  MEMB      48              0.0000000000
      5502        48  CHL1      H22B          -25.3128643311       -9.4380110380        6.5208200000  MEMB      48              0.0000000000
      5503        48  CHL1      C23           -26.5564701917       -8.4536539402        4.9054600000  MEMB      48              0.0000000000
      5504        48  CHL1      H23A          -26.6275672569       -9.5008749256        4.5413400000  MEMB      48              0.0000000000
      5505        48  CHL1      H23B          -27.6113189176       -8.1080677685        4.9523300000  MEMB      48              0.0000000000
      5506        48  CHL1      C24           -25.6964207652       -7.5497433784        3.9780000000  MEMB      48              0.0000000000
      5507        48  CHL1      H24A          -25.6105850564       -6.5000052551        4.3315500000  MEMB      48              0.0000000000
      5508        48  CHL1      H24B          -24.6294518490       -7.8516845712        4.0467000000  MEMB      48              0.0000000000
      5509        48  CHL1      C25           -26.2799022828       -7.5566436114        2.5358300000  MEMB      48              0.0000000000
      5510        48  CHL1      H25           -26.4296211352       -8.6249684441        2.2701400000  MEMB      48              0.0000000000
      5511        48  CHL1      C26           -27.5405388161       -6.7694355745        2.2871200000  MEMB      48              0.0000000000
      5512        48  CHL1      H26A          -27.4953021001       -5.6597970047        2.3186600000  MEMB      48              0.0000000000
      5513        48  CHL1      H26B          -27.9123106521       -7.0105014205        1.2683000000  MEMB      48              0.0000000000
      5514        48  CHL1      H26C          -28.2908169258       -7.0194759444        3.0674300000  MEMB      48              0.0000000000
      5515        48  CHL1      C27           -25.2521803849       -7.0937121394        1.4539300000  MEMB      48              0.0000000000
      5516        48  CHL1      H27A          -25.3811755751       -7.5572795241        0.4525400000  MEMB      48              0.0000000000
      5517        48  CHL1      H27B          -25.3797587114       -6.0043049091        1.2771500000  MEMB      48              0.0000000000
      5518        48  CHL1      H27C          -24.2532623702       -7.4991453999        1.7224400000  MEMB      48              0.0000000000
      5519        49  CHL1      C3              9.0742667426      -27.9220215091       17.2830850000  MEMB      49              0.0000000000
      5520        49  CHL1      H3              8.9511603180      -26.8466396880       17.0326150000  MEMB      49              0.0000000000
      5521        49  CHL1      O3              8.9541362974      -28.0343504909       18.7169150000  MEMB      49              0.0000000000
      5522        49  CHL1      H3'             9.7293416117      -27.5806514694       19.0557450000  MEMB      49              0.0000000000
      5523        49  CHL1      C4              7.9317369634      -28.6184184086       16.5775650000  MEMB      49              0.0000000000
      5524        49  CHL1      H4A             7.8857143255      -29.6514840340       16.9837650000  MEMB      49              0.0000000000
      5525        49  CHL1      H4B             7.0854253049      -27.9564161923       16.8601350000  MEMB      49              0.0000000000
      5526        49  CHL1      C5              8.0783017421      -28.6224098068       15.0263750000  MEMB      49              0.0000000000
      5527        49  CHL1      C6              7.1490618140      -28.0413642512       14.2854050000  MEMB      49              0.0000000000
      5528        49  CHL1      H6              6.1570976881      -27.8390539297       14.7156350000  MEMB      49              0.0000000000
      5529        49  CHL1      C7              7.2048611372      -27.8434025844       12.7921450000  MEMB      49              0.0000000000
      5530        49  CHL1      H7A             6.3119360410      -28.3527236110       12.3707150000  MEMB      49              0.0000000000
      5531        49  CHL1      H7B             7.0053714551      -26.7820424240       12.5312950000  MEMB      49              0.0000000000
      5532        49  CHL1      C8              8.4170839314      -28.6156422071       12.1789550000  MEMB      49              0.0000000000
      5533        49  CHL1      H8              8.2777513846      -29.7112839800       12.2993550000  MEMB      49              0.0000000000
      5534        49  CHL1      C14             8.6218484532      -28.1459022076       10.7246150000  MEMB      49              0.0000000000
      5535        49  CHL1      H14             8.6581388014      -27.0377818566       10.7959850000  MEMB      49              0.0000000000
      5536        49  CHL1      C15             7.5012395174      -28.4681721341        9.6807950000  MEMB      49              0.0000000000
      5537        49  CHL1      H15A            7.1680401492      -29.5241329689        9.5900650000  MEMB      49              0.0000000000
      5538        49  CHL1      H15B            6.7085722480      -27.7235039459        9.9076550000  MEMB      49              0.0000000000
      5539        49  CHL1      C16             8.2037293936      -28.1611903890        8.3668650000  MEMB      49              0.0000000000
      5540        49  CHL1      H16A            8.2306117171      -28.9638077159        7.5991450000  MEMB      49              0.0000000000
      5541        49  CHL1      H16B            7.5681934876      -27.3725947647        7.9102150000  MEMB      49              0.0000000000
      5542        49  CHL1      C17             9.7212490474      -27.7800773958        8.6982450000  MEMB      49              0.0000000000
      5543        49  CHL1      H17             9.7930506952      -26.6748578886        8.7858950000  MEMB      49              0.0000000000
      5544        49  CHL1      C13             9.9217099302      -28.5396699190       10.0317450000  MEMB      49              0.0000000000
      5545        49  CHL1      C18            10.0166543655      -30.0259041307        9.7576450000  MEMB      49              0.0000000000
      5546        49  CHL1      H18A            9.7177401886      -30.6061426358       10.6566950000  MEMB      49              0.0000000000
      5547        49  CHL1      H18B            9.3470134580      -30.3343857936        8.9265350000  MEMB      49              0.0000000000
      5548        49  CHL1      H18C           11.0041740763      -30.3183426924        9.3409950000  MEMB      49              0.0000000000
      5549        49  CHL1      C12            11.0717396508      -28.0289399683       10.9132650000  MEMB      49              0.0000000000
      5550        49  CHL1      H12A           12.0660136086      -28.2551830034       10.4721650000  MEMB      49              0.0000000000
      5551        49  CHL1      H12B           10.9932386803      -26.9247983285       11.0082650000  MEMB      49              0.0000000000
      5552        49  CHL1      C11            10.9940565311      -28.7503358910       12.3405650000  MEMB      49              0.0000000000
      5553        49  CHL1      H11A           11.2752112694      -29.8136217730       12.1833850000  MEMB      49              0.0000000000
      5554        49  CHL1      H11B           11.7893248506      -28.2728533454       12.9520150000  MEMB      49              0.0000000000
      5555        49  CHL1      C9              9.6791636720      -28.3881030438       13.0298050000  MEMB      49              0.0000000000
      5556        49  CHL1      H9              9.7415606652      -27.2996991297       13.2437850000  MEMB      49              0.0000000000
      5557        49  CHL1      C10             9.4447677926      -28.9643515741       14.4979350000  MEMB      49              0.0000000000
      5558        49  CHL1      C19             9.5406784498      -30.5355233123       14.4824350000  MEMB      49              0.0000000000
      5559        49  CHL1      H19A            9.3025316303      -30.9666754976       15.4782850000  MEMB      49              0.0000000000
      5560        49  CHL1      H19B            8.7899337026      -30.8980785361       13.7481050000  MEMB      49              0.0000000000
      5561        49  CHL1      H19C           10.5744302450      -30.8265094000       14.1978150000  MEMB      49              0.0000000000
      5562        49  CHL1      C1             10.6476765555      -28.3584995388       15.3769550000  MEMB      49              0.0000000000
      5563        49  CHL1      H1A            11.6246049873      -28.7645779923       15.0377650000  MEMB      49              0.0000000000
      5564        49  CHL1      H1B            10.5908283161      -27.2599144118       15.2214250000  MEMB      49              0.0000000000
      5565        49  CHL1      C2             10.4729052291      -28.5156443101       16.8509850000  MEMB      49              0.0000000000
      5566        49  CHL1      H2A            11.3135448628      -27.9811950520       17.3429250000  MEMB      49              0.0000000000
      5567        49  CHL1      H2B            10.4823205146      -29.6144516624       17.0148250000  MEMB      49              0.0000000000
      5568        49  CHL1      C20            10.6514439799      -28.1705486316        7.4163850000  MEMB      49              0.0000000000
      5569        49  CHL1      H20            10.4321479778      -29.2293899491        7.1613050000  MEMB      49              0.0000000000
      5570        49  CHL1      C21            12.1784176962      -28.1339528532        7.5667050000  MEMB      49              0.0000000000
      5571        49  CHL1      H21A           12.5783955235      -28.7338093728        8.4120050000  MEMB      49              0.0000000000
      5572        49  CHL1      H21B           12.6982359230      -27.1526519434        7.6005150000  MEMB      49              0.0000000000
      5573        49  CHL1      H21C           12.6073221992      -28.4642525524        6.5965150000  MEMB      49              0.0000000000
      5574        49  CHL1      C22            10.2570382840      -27.2516399084        6.1637950000  MEMB      49              0.0000000000
      5575        49  CHL1      H22A            9.3350573850      -26.6915356874        6.4294250000  MEMB      49              0.0000000000
      5576        49  CHL1      H22B           11.0914636687      -26.5199961564        6.1114250000  MEMB      49              0.0000000000
      5577        49  CHL1      C23            10.1441940775      -27.9434423712        4.7575250000  MEMB      49              0.0000000000
      5578        49  CHL1      H23A           11.1114070349      -28.4655983314        4.5957550000  MEMB      49              0.0000000000
      5579        49  CHL1      H23B            9.3334370030      -28.7030288001        4.7522250000  MEMB      49              0.0000000000
      5580        49  CHL1      C24             9.9521653718      -26.9731697508        3.5795850000  MEMB      49              0.0000000000
      5581        49  CHL1      H24A            9.2806388690      -26.1627016518        3.9352650000  MEMB      49              0.0000000000
      5582        49  CHL1      H24B           10.8653163680      -26.3516552687        3.4605450000  MEMB      49              0.0000000000
      5583        49  CHL1      C25             9.5283734827      -27.6736260878        2.2866350000  MEMB      49              0.0000000000
      5584        49  CHL1      H25             8.6772440221      -28.3523885194        2.5083850000  MEMB      49              0.0000000000
      5585        49  CHL1      C26             8.9406734923      -26.5374865496        1.2359150000  MEMB      49              0.0000000000
      5586        49  CHL1      H26A            8.5349234542      -27.0420060139        0.3330550000  MEMB      49              0.0000000000
      5587        49  CHL1      H26B            8.1383179650      -25.9057655392        1.6734850000  MEMB      49              0.0000000000
      5588        49  CHL1      H26C            9.7804999375      -25.9144018356        0.8606950000  MEMB      49              0.0000000000
      5589        49  CHL1      C27            10.7540610123      -28.3371506384        1.6680650000  MEMB      49              0.0000000000
      5590        49  CHL1      H27A           11.4813045909      -27.5902738481        1.2838650000  MEMB      49              0.0000000000
      5591        49  CHL1      H27B           11.2633191728      -29.0129576218        2.3879750000  MEMB      49              0.0000000000
      5592        49  CHL1      H27C           10.3397964048      -29.0295962198        0.9043650000  MEMB      49              0.0000000000
      5593        50  CHL1      C3            -29.4996141320        4.4215320637       17.3627500000  MEMB      50              0.0000000000
      5594        50  CHL1      H3            -30.1959712470        3.5560228583       17.3455800000  MEMB      50              0.0000000000
      5595        50  CHL1      O3            -29.0783820680        4.6846482563       18.6372500000  MEMB      50              0.0000000000
      5596        50  CHL1      H3'           -29.8911366553        4.7983632953       19.1353500000  MEMB      50              0.0000000000
      5597        50  CHL1      C4            -28.2983254059        4.2281686002       16.4634100000  MEMB      50              0.0000000000
      5598        50  CHL1      H4A           -27.7526050272        5.1929093665       16.5394700000  MEMB      50              0.0000000000
      5599        50  CHL1      H4B           -27.7134440186        3.3474592981       16.8048400000  MEMB      50              0.0000000000
      5600        50  CHL1      C5            -28.7097672570        3.8649403788       15.0390500000  MEMB      50              0.0000000000
      5601        50  CHL1      C6            -28.4118688837        2.7239120792       14.4513700000  MEMB      50              0.0000000000
      5602        50  CHL1      H6            -27.7820472152        2.0288072566       15.0259700000  MEMB      50              0.0000000000
      5603        50  CHL1      C7            -28.9146589375        2.3653754213       13.0656700000  MEMB      50              0.0000000000
      5604        50  CHL1      H7A           -28.1051318572        1.8162528408       12.5389300000  MEMB      50              0.0000000000
      5605        50  CHL1      H7B           -29.8083243068        1.7069983768       13.1129200000  MEMB      50              0.0000000000
      5606        50  CHL1      C8            -29.1292305310        3.6550473342       12.2475600000  MEMB      50              0.0000000000
      5607        50  CHL1      H8            -28.1361649169        4.1350968386       12.1145700000  MEMB      50              0.0000000000
      5608        50  CHL1      C14           -29.7186470742        3.2716405852       10.8916500000  MEMB      50              0.0000000000
      5609        50  CHL1      H14           -30.6782619964        2.8137115265       11.2137800000  MEMB      50              0.0000000000
      5610        50  CHL1      C15           -29.1047151826        2.1699991083       10.1100300000  MEMB      50              0.0000000000
      5611        50  CHL1      H15A          -28.0214453119        2.3773623619        9.9764600000  MEMB      50              0.0000000000
      5612        50  CHL1      H15B          -29.2268410568        1.2064625567       10.6494800000  MEMB      50              0.0000000000
      5613        50  CHL1      C16           -29.7199697443        2.2921914632        8.7540900000  MEMB      50              0.0000000000
      5614        50  CHL1      H16A          -29.0744065589        2.5756566393        7.8954700000  MEMB      50              0.0000000000
      5615        50  CHL1      H16B          -30.1452797544        1.3187778005        8.4286800000  MEMB      50              0.0000000000
      5616        50  CHL1      C17           -30.8532750489        3.3565573298        8.9293800000  MEMB      50              0.0000000000
      5617        50  CHL1      H17           -31.6996646808        2.8114599687        9.3992900000  MEMB      50              0.0000000000
      5618        50  CHL1      C13           -30.2469145070        4.2982537994        9.9627200000  MEMB      50              0.0000000000
      5619        50  CHL1      C18           -29.1510715298        5.2286761198        9.3618600000  MEMB      50              0.0000000000
      5620        50  CHL1      H18A          -28.3458582062        4.7540921165        8.7612600000  MEMB      50              0.0000000000
      5621        50  CHL1      H18B          -29.5920768416        5.8755004747        8.5735400000  MEMB      50              0.0000000000
      5622        50  CHL1      H18C          -28.7671807661        6.0156158698       10.0457200000  MEMB      50              0.0000000000
      5623        50  CHL1      C12           -31.2686037156        5.2532538798       10.7177800000  MEMB      50              0.0000000000
      5624        50  CHL1      H12A          -31.5517548396        6.0683378424       10.0179400000  MEMB      50              0.0000000000
      5625        50  CHL1      H12B          -32.2326136935        4.7084232107       10.8081900000  MEMB      50              0.0000000000
      5626        50  CHL1      C11           -30.6355948674        5.7523806453       12.0135100000  MEMB      50              0.0000000000
      5627        50  CHL1      H11A          -29.7939279980        6.4691597318       11.9032800000  MEMB      50              0.0000000000
      5628        50  CHL1      H11B          -31.4036414227        6.3115713613       12.5894700000  MEMB      50              0.0000000000
      5629        50  CHL1      C9            -30.1115577090        4.5847236501       12.9863300000  MEMB      50              0.0000000000
      5630        50  CHL1      H9            -31.0338198903        3.9850989412       13.1419200000  MEMB      50              0.0000000000
      5631        50  CHL1      C10           -29.5839994474        4.9953412755       14.4400200000  MEMB      50              0.0000000000
      5632        50  CHL1      C19           -28.6426315956        6.2215407933       14.1505500000  MEMB      50              0.0000000000
      5633        50  CHL1      H19A          -29.2566843433        7.0628904582       13.7640400000  MEMB      50              0.0000000000
      5634        50  CHL1      H19B          -28.2085419679        6.5627477814       15.1146400000  MEMB      50              0.0000000000
      5635        50  CHL1      H19C          -27.7766888447        6.0369503526       13.4794300000  MEMB      50              0.0000000000
      5636        50  CHL1      C1            -30.7696311411        5.3630667929       15.3491000000  MEMB      50              0.0000000000
      5637        50  CHL1      H1A           -31.1508545229        6.2972998412       14.8841400000  MEMB      50              0.0000000000
      5638        50  CHL1      H1B           -31.4340021197        4.4733784998       15.3117100000  MEMB      50              0.0000000000
      5639        50  CHL1      C2            -30.3512324748        5.5972840519       16.7940800000  MEMB      50              0.0000000000
      5640        50  CHL1      H2A           -31.2314006327        5.8391893597       17.4274100000  MEMB      50              0.0000000000
      5641        50  CHL1      H2B           -29.6066034349        6.4207878748       16.7528600000  MEMB      50              0.0000000000
      5642        50  CHL1      C20           -31.4462040289        3.8860283079        7.5988900000  MEMB      50              0.0000000000
      5643        50  CHL1      H20           -30.5654785913        4.3944033142        7.1514500000  MEMB      50              0.0000000000
      5644        50  CHL1      C21           -32.5538466186        4.8679023977        7.7650600000  MEMB      50              0.0000000000
      5645        50  CHL1      H21A          -33.3518799693        4.4118089413        8.3891200000  MEMB      50              0.0000000000
      5646        50  CHL1      H21B          -32.9949485160        5.0837148146        6.7684800000  MEMB      50              0.0000000000
      5647        50  CHL1      H21C          -32.2336674578        5.8057924831        8.2672300000  MEMB      50              0.0000000000
      5648        50  CHL1      C22           -31.7589300527        2.7196265336        6.5507700000  MEMB      50              0.0000000000
      5649        50  CHL1      H22A          -31.9311566600        1.7383018135        7.0423600000  MEMB      50              0.0000000000
      5650        50  CHL1      H22B          -32.6970688658        3.0262674733        6.0406800000  MEMB      50              0.0000000000
      5651        50  CHL1      C23           -30.6644417723        2.6695862358        5.5210600000  MEMB      50              0.0000000000
      5652        50  CHL1      H23A          -30.3748227390        3.6725604806        5.1409500000  MEMB      50              0.0000000000
      5653        50  CHL1      H23B          -29.7651869577        2.3298079464        6.0780300000  MEMB      50              0.0000000000
      5654        50  CHL1      C24           -30.8577329748        1.6693558967        4.3900600000  MEMB      50              0.0000000000
      5655        50  CHL1      H24A          -31.2996444609        0.7709911587        4.8716900000  MEMB      50              0.0000000000
      5656        50  CHL1      H24B          -31.5502648061        1.9883712498        3.5820000000  MEMB      50              0.0000000000
      5657        50  CHL1      C25           -29.5971120587        0.9896276341        3.8453500000  MEMB      50              0.0000000000
      5658        50  CHL1      H25           -28.8978560612        0.6740692724        4.6489600000  MEMB      50              0.0000000000
      5659        50  CHL1      C26           -29.9609534750       -0.3096242284        3.0976800000  MEMB      50              0.0000000000
      5660        50  CHL1      H26A          -30.9882223157       -0.1989021135        2.6892900000  MEMB      50              0.0000000000
      5661        50  CHL1      H26B          -29.2471066873       -0.6817257740        2.3319900000  MEMB      50              0.0000000000
      5662        50  CHL1      H26C          -30.1190294003       -1.1046493610        3.8574600000  MEMB      50              0.0000000000
      5663        50  CHL1      C27           -28.9469885745        1.9110681964        2.7592700000  MEMB      50              0.0000000000
      5664        50  CHL1      H27A          -29.6986325889        2.0813493452        1.9590500000  MEMB      50              0.0000000000
      5665        50  CHL1      H27B          -28.6086645331        2.8990810014        3.1383500000  MEMB      50              0.0000000000
      5666        50  CHL1      H27C          -27.9983241096        1.4973261987        2.3553200000  MEMB      50              0.0000000000
      5667        51  SAPE      N              -6.3570002587       29.0778148840       22.1616698434  MEMB      51              0.0000000000
      5668        51  SAPE      HN1            -7.0185904674       29.3110229809       22.9294669669  MEMB      51              0.0000000000
      5669        51  SAPE      HN2            -6.7621222577       29.5373691598       21.3212615644  MEMB      51              0.0000000000
      5670        51  SAPE      HN3            -6.4230268789       28.0420538350       22.0950395226  MEMB      51              0.0000000000
      5671        51  SAPE      C12            -4.8632829105       29.3771308021       22.4396075325  MEMB      51              0.0000000000
      5672        51  SAPE      H12A           -4.5282742085       28.9046966866       23.3877089591  MEMB      51              0.0000000000
      5673        51  SAPE      H12B           -4.7571984326       30.4721678928       22.5944004637  MEMB      51              0.0000000000
      5674        51  SAPE      C11            -3.8627535966       28.9481600186       21.3221195013  MEMB      51              0.0000000000
      5675        51  SAPE      H11A           -4.0934363637       27.9162770177       20.9810566460  MEMB      51              0.0000000000
      5676        51  SAPE      H11B           -2.8661534522       28.9136275637       21.8119325154  MEMB      51              0.0000000000
      5677        51  SAPE      P              -4.4787275761       29.5350227133       18.8030032519  MEMB      51              0.0000000000
      5678        51  SAPE      O13            -5.5877687894       28.5314578164       18.8745614513  MEMB      51              0.0000000000
      5679        51  SAPE      O14            -4.8200816776       30.8414019081       18.2059457264  MEMB      51              0.0000000000
      5680        51  SAPE      O12            -3.8675110000       29.8566411121       20.1995751771  MEMB      51              0.0000000000
      5681        51  SAPE      O11            -3.2819219510       28.8047819453       17.9935175036  MEMB      51              0.0000000000
      5682        51  SAPE      C1             -3.6565447305       28.2827454719       16.7320812548  MEMB      51              0.0000000000
      5683        51  SAPE      HA             -4.6893323907       27.8742775436       16.7607956623  MEMB      51              0.0000000000
      5684        51  SAPE      HB             -3.6760090642       29.0998151435       15.9795260295  MEMB      51              0.0000000000
      5685        51  SAPE      C2             -2.5363309152       27.2034725087       16.3481437048  MEMB      51              0.0000000000
      5686        51  SAPE      HS             -2.0876731162       26.8413767200       17.2978353406  MEMB      51              0.0000000000
      5687        51  SAPE      O21            -1.5084205405       27.8866277353       15.5924395697  MEMB      51              0.0000000000
      5688        51  SAPE      C21            -0.3079999690       27.3043006127       15.4468471535  MEMB      51              0.0000000000
      5689        51  SAPE      O22             0.0306286484       26.2376459200       15.9346820779  MEMB      51              0.0000000000
      5690        51  SAPE      C22             0.6349848699       28.2641273699       14.8220386753  MEMB      51              0.0000000000
      5691        51  SAPE      H2R             0.4903424019       29.3310428555       15.0960664883  MEMB      51              0.0000000000
      5692        51  SAPE      H2S             1.6544971605       27.9807069605       15.1605467941  MEMB      51              0.0000000000
      5693        51  SAPE      C3             -3.0975225207       26.0582192830       15.4777758604  MEMB      51              0.0000000000
      5694        51  SAPE      HX             -3.6877427827       25.4340963383       16.1823550322  MEMB      51              0.0000000000
      5695        51  SAPE      HY             -2.1750982177       25.5602652810       15.1096779838  MEMB      51              0.0000000000
      5696        51  SAPE      O31            -3.7224311714       26.5242397730       14.2666094529  MEMB      51              0.0000000000
      5697        51  SAPE      C31            -4.8393296988       25.8444555120       13.9503773926  MEMB      51              0.0000000000
      5698        51  SAPE      O32            -5.2454000128       24.8646377530       14.5323800662  MEMB      51              0.0000000000
      5699        51  SAPE      C32            -5.6132171925       26.5968109386       12.9016800259  MEMB      51              0.0000000000
      5700        51  SAPE      H2X            -6.3671567850       25.8868107848       12.4994412481  MEMB      51              0.0000000000
      5701        51  SAPE      H2Y            -4.9844235734       27.0545368258       12.1083162627  MEMB      51              0.0000000000
      5702        51  SAPE      C23             0.4031431642       28.2559954215       13.2970191691  MEMB      51              0.0000000000
      5703        51  SAPE      H3R            -0.6654202442       28.3578469473       13.0104543345  MEMB      51              0.0000000000
      5704        51  SAPE      H3S             0.7419863296       27.3066282569       12.8298910242  MEMB      51              0.0000000000
      5705        51  SAPE      C24             1.0145181771       29.3367740740       12.4399674009  MEMB      51              0.0000000000
      5706        51  SAPE      H4R             0.9530352425       28.8962996794       11.4218700045  MEMB      51              0.0000000000
      5707        51  SAPE      H4S             2.0915449700       29.3902486749       12.7073147413  MEMB      51              0.0000000000
      5708        51  SAPE      C25             0.4253150733       30.6951426348       12.8115435267  MEMB      51              0.0000000000
      5709        51  SAPE      H5R             0.8779203688       31.1354565762       13.7122500655  MEMB      51              0.0000000000
      5710        51  SAPE      C26            -0.5220312581       31.3107898888       12.0712299016  MEMB      51              0.0000000000
      5711        51  SAPE      H6R            -0.9325214890       32.1558429114       12.6434043164  MEMB      51              0.0000000000
      5712        51  SAPE      C27            -1.2085228846       30.8343694036       10.7898687185  MEMB      51              0.0000000000
      5713        51  SAPE      H7R            -2.2706304544       31.1568179177       10.8375728965  MEMB      51              0.0000000000
      5714        51  SAPE      H7S            -1.2697815659       29.7312477088       10.6728607123  MEMB      51              0.0000000000
      5715        51  SAPE      C28            -0.5788990608       31.3919652041        9.5381501986  MEMB      51              0.0000000000
      5716        51  SAPE      H8R            -0.0100696798       32.3087559194        9.7524587775  MEMB      51              0.0000000000
      5717        51  SAPE      C29            -0.4434024984       30.7653675203        8.3483188360  MEMB      51              0.0000000000
      5718        51  SAPE      H9R             0.1625385061       31.1647621713        7.5216873822  MEMB      51              0.0000000000
      5719        51  SAPE      C210           -0.9255408802       29.3244428787        8.0386797362  MEMB      51              0.0000000000
      5720        51  SAPE      H10R           -0.6357651221       28.5788269172        8.8096574306  MEMB      51              0.0000000000
      5721        51  SAPE      H10S           -0.5256303191       28.9748451809        7.0628848321  MEMB      51              0.0000000000
      5722        51  SAPE      C211           -2.4019999815       29.1304321497        7.8755751236  MEMB      51              0.0000000000
      5723        51  SAPE      H11R           -2.8208172727       28.5823127952        8.7324044061  MEMB      51              0.0000000000
      5724        51  SAPE      C212           -3.2944738533       29.6152992286        6.9876782786  MEMB      51              0.0000000000
      5725        51  SAPE      H12R           -4.2767775351       29.1227850601        7.0377720762  MEMB      51              0.0000000000
      5726        51  SAPE      C213           -3.0307353285       30.5591504703        5.8873697462  MEMB      51              0.0000000000
      5727        51  SAPE      H13R           -2.7656944794       30.0823397794        4.9195234839  MEMB      51              0.0000000000
      5728        51  SAPE      H13S           -2.0627342112       31.0903573041        6.0103099178  MEMB      51              0.0000000000
      5729        51  SAPE      C214           -4.0493885034       31.5828837393        5.6168244700  MEMB      51              0.0000000000
      5730        51  SAPE      H14R           -4.1948944414       32.4039857346        6.3341945331  MEMB      51              0.0000000000
      5731        51  SAPE      C215           -4.8066145763       31.6690292252        4.5229368804  MEMB      51              0.0000000000
      5732        51  SAPE      H15R           -5.5955576997       32.4297465499        4.4287154779  MEMB      51              0.0000000000
      5733        51  SAPE      C216           -4.7937289894       30.6993673229        3.2822449499  MEMB      51              0.0000000000
      5734        51  SAPE      H16R           -5.8597383525       30.6371106652        2.9755372322  MEMB      51              0.0000000000
      5735        51  SAPE      H16S           -4.4710199653       29.6868889729        3.6063847783  MEMB      51              0.0000000000
      5736        51  SAPE      C217           -3.9984413183       31.1454688041        2.0564822158  MEMB      51              0.0000000000
      5737        51  SAPE      H17R           -2.9749298531       31.5302691879        2.2531391802  MEMB      51              0.0000000000
      5738        51  SAPE      H17S           -4.6571084787       31.9898513591        1.7606839043  MEMB      51              0.0000000000
      5739        51  SAPE      C218           -3.9029568171       30.0153140333        1.0705293215  MEMB      51              0.0000000000
      5740        51  SAPE      H18R           -3.8408052753       29.0805607693        1.6677685094  MEMB      51              0.0000000000
      5741        51  SAPE      H18S           -2.9560034827       29.9917115691        0.4899738900  MEMB      51              0.0000000000
      5742        51  SAPE      C219           -5.0443392357       29.6952719826        0.2025743226  MEMB      51              0.0000000000
      5743        51  SAPE      H19R           -5.1010305043       30.5614396577       -0.4908657032  MEMB      51              0.0000000000
      5744        51  SAPE      H19S           -5.9664966775       29.6137800582        0.8168279669  MEMB      51              0.0000000000
      5745        51  SAPE      C220           -4.8358660212       28.3400274520       -0.4643403847  MEMB      51              0.0000000000
      5746        51  SAPE      H20R           -5.8156207419       28.1819105686       -0.9637410678  MEMB      51              0.0000000000
      5747        51  SAPE      H20S           -4.6849050589       27.5063723986        0.2543744423  MEMB      51              0.0000000000
      5748        51  SAPE      H20T           -3.9581186035       28.3480829168       -1.1453812661  MEMB      51              0.0000000000
      5749        51  SAPE      C33            -6.2897248708       27.7516006647       13.5866520207  MEMB      51              0.0000000000
      5750        51  SAPE      H3X            -5.5846480026       28.3322529337       14.2191319535  MEMB      51              0.0000000000
      5751        51  SAPE      H3Y            -7.1006214824       27.3536995913       14.2335237745  MEMB      51              0.0000000000
      5752        51  SAPE      C34            -7.0098283125       28.6138671534       12.5385515866  MEMB      51              0.0000000000
      5753        51  SAPE      H4X            -7.8332528868       29.1331270757       13.0739602575  MEMB      51              0.0000000000
      5754        51  SAPE      H4Y            -7.3701340487       28.0272224260       11.6665719867  MEMB      51              0.0000000000
      5755        51  SAPE      C35            -5.9985908693       29.6566170316       11.9738741986  MEMB      51              0.0000000000
      5756        51  SAPE      H5X            -5.1166454422       29.2067374577       11.4697892951  MEMB      51              0.0000000000
      5757        51  SAPE      H5Y            -5.6834625356       30.2964491327       12.8257132674  MEMB      51              0.0000000000
      5758        51  SAPE      C36            -6.4796009763       30.6895342606       10.8949761343  MEMB      51              0.0000000000
      5759        51  SAPE      H6X            -5.5461845058       31.2435810148       10.6581502683  MEMB      51              0.0000000000
      5760        51  SAPE      H6Y            -7.3051297676       31.3018738397       11.3167153854  MEMB      51              0.0000000000
      5761        51  SAPE      C37            -7.0382641242       30.0606841800        9.5519451841  MEMB      51              0.0000000000
      5762        51  SAPE      H7X            -7.1300465173       30.8217825212        8.7478135290  MEMB      51              0.0000000000
      5763        51  SAPE      H7Y            -8.0991363828       29.7789484586        9.7236871464  MEMB      51              0.0000000000
      5764        51  SAPE      C38            -6.3503527770       28.7714986731        9.0841915433  MEMB      51              0.0000000000
      5765        51  SAPE      H8X            -6.5614275820       27.9501976484        9.8019890050  MEMB      51              0.0000000000
      5766        51  SAPE      H8Y            -5.2575083606       28.9707595597        9.1017219390  MEMB      51              0.0000000000
      5767        51  SAPE      C39            -6.8359648487       28.3236962500        7.6704599299  MEMB      51              0.0000000000
      5768        51  SAPE      H9X            -6.3842466737       29.1187158027        7.0394169014  MEMB      51              0.0000000000
      5769        51  SAPE      H9Y            -7.9404387527       28.3643830330        7.5573082655  MEMB      51              0.0000000000
      5770        51  SAPE      C310           -6.4084249603       26.8944585589        7.4166044232  MEMB      51              0.0000000000
      5771        51  SAPE      H10X           -6.9557716284       26.2347430860        8.1233638926  MEMB      51              0.0000000000
      5772        51  SAPE      H10Y           -5.3288201116       26.7818813447        7.6534603777  MEMB      51              0.0000000000
      5773        51  SAPE      C311           -6.6540578977       26.5500513055        5.9853923582  MEMB      51              0.0000000000
      5774        51  SAPE      H11X           -7.6107299840       26.9593478647        5.5960652412  MEMB      51              0.0000000000
      5775        51  SAPE      H11Y           -6.5743495652       25.4508598580        5.8448758408  MEMB      51              0.0000000000
      5776        51  SAPE      C312           -5.6042558543       27.0483371607        5.0454486923  MEMB      51              0.0000000000
      5777        51  SAPE      H12X           -5.4136718374       28.0775285077        5.4179587679  MEMB      51              0.0000000000
      5778        51  SAPE      H12Y           -5.9928632832       27.1855373835        4.0137119496  MEMB      51              0.0000000000
      5779        51  SAPE      C313           -4.3067877083       26.2832606885        5.0149805691  MEMB      51              0.0000000000
      5780        51  SAPE      H13X           -4.5274469963       25.3030774584        4.5407741264  MEMB      51              0.0000000000
      5781        51  SAPE      H13Y           -3.9384083110       25.9649526222        6.0136284175  MEMB      51              0.0000000000
      5782        51  SAPE      C314           -3.2137963514       27.0159118672        4.2101990342  MEMB      51              0.0000000000
      5783        51  SAPE      H14X           -2.7422031812       27.8408582302        4.7858589794  MEMB      51              0.0000000000
      5784        51  SAPE      H14Y           -3.6533891146       27.5538209314        3.3431736577  MEMB      51              0.0000000000
      5785        51  SAPE      C315           -2.0734505902       26.0784823192        3.8279702149  MEMB      51              0.0000000000
      5786        51  SAPE      H15X           -2.4671214946       25.4100962276        3.0326060803  MEMB      51              0.0000000000
      5787        51  SAPE      H15Y           -1.8962935919       25.4338508213        4.7153181417  MEMB      51              0.0000000000
      5788        51  SAPE      C316           -0.6549278503       26.8181883410        3.5494795255  MEMB      51              0.0000000000
      5789        51  SAPE      H16X           -0.0021367069       25.9238554556        3.4580820712  MEMB      51              0.0000000000
      5790        51  SAPE      H16Y           -0.4643134131       27.4466134388        4.4456214057  MEMB      51              0.0000000000
      5791        51  SAPE      C317           -0.5674237199       27.6953863042        2.3126213443  MEMB      51              0.0000000000
      5792        51  SAPE      H17X           -1.4558681898       27.5774632114        1.6560533509  MEMB      51              0.0000000000
      5793        51  SAPE      H17Y            0.3477364859       27.5250799778        1.7061577925  MEMB      51              0.0000000000
      5794        51  SAPE      C318           -0.4838298339       29.1264377269        2.8012207994  MEMB      51              0.0000000000
      5795        51  SAPE      H18X           -0.5455475118       29.8661642378        1.9745922408  MEMB      51              0.0000000000
      5796        51  SAPE      H18Y            0.5588336120       29.2637752645        3.1594283728  MEMB      51              0.0000000000
      5797        51  SAPE      H18Z           -1.1448384387       29.4770481078        3.6224777212  MEMB      51              0.0000000000
      5798        52  CHL1      C3            -18.2842167399      -24.0115233750       17.3454600000  MEMB      52              0.0000000000
      5799        52  CHL1      H3            -17.2173080616      -23.8159071123       17.1051100000  MEMB      52              0.0000000000
      5800        52  CHL1      O3            -18.5670730601      -23.5417894250       18.6545400000  MEMB      52              0.0000000000
      5801        52  CHL1      H3'           -17.7571254053      -23.5709815727       19.1690700000  MEMB      52              0.0000000000
      5802        52  CHL1      C4            -19.2783507832      -23.4178086779       16.4558000000  MEMB      52              0.0000000000
      5803        52  CHL1      H4A           -20.3346941088      -23.5678656329       16.7655500000  MEMB      52              0.0000000000
      5804        52  CHL1      H4B           -19.1949295417      -22.3099671751       16.4624400000  MEMB      52              0.0000000000
      5805        52  CHL1      C5            -19.1140068161      -23.9107192485       14.9928500000  MEMB      52              0.0000000000
      5806        52  CHL1      C6            -18.8397447988      -23.0372542811       13.9927600000  MEMB      52              0.0000000000
      5807        52  CHL1      H6            -18.8406827668      -21.9587841771       14.2093100000  MEMB      52              0.0000000000
      5808        52  CHL1      C7            -18.7387254358      -23.5012642857       12.5934500000  MEMB      52              0.0000000000
      5809        52  CHL1      H7A           -19.4177008951      -22.8927156757       11.9586400000  MEMB      52              0.0000000000
      5810        52  CHL1      H7B           -17.7534604575      -23.2856875203       12.1275100000  MEMB      52              0.0000000000
      5811        52  CHL1      C8            -19.1179351891      -24.9448147930       12.2602400000  MEMB      52              0.0000000000
      5812        52  CHL1      H8            -20.2234942858      -24.8929700416       12.1634100000  MEMB      52              0.0000000000
      5813        52  CHL1      C14           -18.5627628017      -25.3494774930       10.8903400000  MEMB      52              0.0000000000
      5814        52  CHL1      H14           -17.4569941367      -25.3657403378       10.9967500000  MEMB      52              0.0000000000
      5815        52  CHL1      C15           -18.7258647599      -24.4349984815        9.6774500000  MEMB      52              0.0000000000
      5816        52  CHL1      H15A          -19.7903962496      -24.1187700364        9.6445700000  MEMB      52              0.0000000000
      5817        52  CHL1      H15B          -18.0125791063      -23.5956672584        9.8225900000  MEMB      52              0.0000000000
      5818        52  CHL1      C16           -18.4343105289      -25.3145925593        8.5232300000  MEMB      52              0.0000000000
      5819        52  CHL1      H16A          -19.2012606251      -25.3221258109        7.7194600000  MEMB      52              0.0000000000
      5820        52  CHL1      H16B          -17.4901536596      -25.0865850108        7.9838700000  MEMB      52              0.0000000000
      5821        52  CHL1      C17           -18.2767485691      -26.7762899417        9.0626200000  MEMB      52              0.0000000000
      5822        52  CHL1      H17           -17.1950754283      -26.8420654547        9.3075000000  MEMB      52              0.0000000000
      5823        52  CHL1      C13           -18.9388661100      -26.7733597798       10.4681000000  MEMB      52              0.0000000000
      5824        52  CHL1      C18           -20.5056975529      -26.8479432524       10.3089800000  MEMB      52              0.0000000000
      5825        52  CHL1      H18A          -20.8435227432      -26.1305212787        9.5308400000  MEMB      52              0.0000000000
      5826        52  CHL1      H18B          -20.8006663540      -27.9009211609       10.1126000000  MEMB      52              0.0000000000
      5827        52  CHL1      H18C          -21.0241783723      -26.4457038851       11.2054800000  MEMB      52              0.0000000000
      5828        52  CHL1      C12           -18.5162479854      -27.7913801062       11.5525200000  MEMB      52              0.0000000000
      5829        52  CHL1      H12A          -18.7297786160      -28.8583897773       11.3284500000  MEMB      52              0.0000000000
      5830        52  CHL1      H12B          -17.4143693255      -27.7366704355       11.6836300000  MEMB      52              0.0000000000
      5831        52  CHL1      C11           -19.0017795320      -27.3515532513       12.9641200000  MEMB      52              0.0000000000
      5832        52  CHL1      H11A          -20.1047533960      -27.4848007392       12.9626400000  MEMB      52              0.0000000000
      5833        52  CHL1      H11B          -18.7533864018      -27.9852327442       13.8422300000  MEMB      52              0.0000000000
      5834        52  CHL1      C9            -18.6692340434      -25.8645043567       13.3245100000  MEMB      52              0.0000000000
      5835        52  CHL1      H9            -17.5585505529      -25.8899820532       13.3166500000  MEMB      52              0.0000000000
      5836        52  CHL1      C10           -19.1351844275      -25.4566847240       14.8530700000  MEMB      52              0.0000000000
      5837        52  CHL1      C19           -20.5673715833      -25.9958865421       15.0508100000  MEMB      52              0.0000000000
      5838        52  CHL1      H19A          -20.5753809855      -27.1064726011       15.0799200000  MEMB      52              0.0000000000
      5839        52  CHL1      H19B          -20.9119545757      -25.5802164807       16.0217900000  MEMB      52              0.0000000000
      5840        52  CHL1      H19C          -21.2733603997      -25.7694992250       14.2233700000  MEMB      52              0.0000000000
      5841        52  CHL1      C1            -18.1586073855      -26.0984981873       15.8284100000  MEMB      52              0.0000000000
      5842        52  CHL1      H1A           -18.1934979593      -27.2054240533       15.7400600000  MEMB      52              0.0000000000
      5843        52  CHL1      H1B           -17.1531596294      -25.7555057055       15.5032100000  MEMB      52              0.0000000000
      5844        52  CHL1      C2            -18.3126848331      -25.5287252021       17.2573300000  MEMB      52              0.0000000000
      5845        52  CHL1      H2A           -17.4735222043      -25.9833340619       17.8260700000  MEMB      52              0.0000000000
      5846        52  CHL1      H2B           -19.2870334510      -25.9022345252       17.6387000000  MEMB      52              0.0000000000
      5847        52  CHL1      C20           -18.6539146438      -27.9157146073        8.0485600000  MEMB      52              0.0000000000
      5848        52  CHL1      H20           -19.7582084875      -27.8557822273        7.9424700000  MEMB      52              0.0000000000
      5849        52  CHL1      C21           -18.2627295690      -29.3511262042        8.5273800000  MEMB      52              0.0000000000
      5850        52  CHL1      H21A          -18.1741283207      -30.0320037542        7.6539500000  MEMB      52              0.0000000000
      5851        52  CHL1      H21B          -18.9994199303      -29.8514403756        9.1916700000  MEMB      52              0.0000000000
      5852        52  CHL1      H21C          -17.2833227077      -29.2745444727        9.0462400000  MEMB      52              0.0000000000
      5853        52  CHL1      C22           -18.0565188376      -27.6872994421        6.6274600000  MEMB      52              0.0000000000
      5854        52  CHL1      H22A          -18.5513829109      -28.2930598167        5.8384800000  MEMB      52              0.0000000000
      5855        52  CHL1      H22B          -18.2253827980      -26.6263404967        6.3442900000  MEMB      52              0.0000000000
      5856        52  CHL1      C23           -16.5549628285      -27.9372037053        6.5771200000  MEMB      52              0.0000000000
      5857        52  CHL1      H23A          -16.0677403043      -27.3653725236        7.3956300000  MEMB      52              0.0000000000
      5858        52  CHL1      H23B          -16.3854700275      -28.9689295007        6.9528100000  MEMB      52              0.0000000000
      5859        52  CHL1      C24           -15.9797022424      -27.6969305459        5.2531700000  MEMB      52              0.0000000000
      5860        52  CHL1      H24A          -14.9376298830      -28.0516116992        5.4035700000  MEMB      52              0.0000000000
      5861        52  CHL1      H24B          -16.6333374232      -28.2466983500        4.5426500000  MEMB      52              0.0000000000
      5862        52  CHL1      C25           -15.8817208362      -26.1874101452        4.9227100000  MEMB      52              0.0000000000
      5863        52  CHL1      H25           -16.9355246492      -25.8451635323        5.0044700000  MEMB      52              0.0000000000
      5864        52  CHL1      C26           -14.8523368722      -25.5122058614        5.8526300000  MEMB      52              0.0000000000
      5865        52  CHL1      H26A          -15.2328119597      -25.3743590107        6.8873100000  MEMB      52              0.0000000000
      5866        52  CHL1      H26B          -13.9267960198      -26.1198621563        5.9446000000  MEMB      52              0.0000000000
      5867        52  CHL1      H26C          -14.7059788340      -24.4705841368        5.4949700000  MEMB      52              0.0000000000
      5868        52  CHL1      C27           -15.2246795469      -26.1555521932        3.5371200000  MEMB      52              0.0000000000
      5869        52  CHL1      H27A          -15.6977789229      -26.8324758199        2.7939700000  MEMB      52              0.0000000000
      5870        52  CHL1      H27B          -15.0864652035      -25.1072051555        3.1962700000  MEMB      52              0.0000000000
      5871        52  CHL1      H27C          -14.1830334154      -26.5418240054        3.5468500000  MEMB      52              0.0000000000
      5872        53  SAPS      N               4.0052324119       31.1760565090       18.7261296890  MEMB      53              0.0000000000
      5873        53  SAPS      HN1             4.2915994459       32.0487045970       18.2381961291  MEMB      53              0.0000000000
      5874        53  SAPS      HN2             4.8805987835       30.9756223344       19.2506865119  MEMB      53              0.0000000000
      5875        53  SAPS      HN3             3.6586698545       30.3640770378       18.1764172746  MEMB      53              0.0000000000
      5876        53  SAPS      C12             3.0542147381       31.6389383898       19.7901210134  MEMB      53              0.0000000000
      5877        53  SAPS      H12A            3.7003532409       32.2126508538       20.4380091722  MEMB      53              0.0000000000
      5878        53  SAPS      C13             1.8775173158       32.4980549598       19.3642058945  MEMB      53              0.0000000000
      5879        53  SAPS      O13A            1.6190462619       32.6402519004       18.1304991436  MEMB      53              0.0000000000
      5880        53  SAPS      O13B            1.1986959913       33.0423719821       20.2828973396  MEMB      53              0.0000000000
      5881        53  SAPS      C11             2.5542205044       30.3601082174       20.5153608242  MEMB      53              0.0000000000
      5882        53  SAPS      H11A            1.8635050517       29.7637131485       19.8816841000  MEMB      53              0.0000000000
      5883        53  SAPS      H11B            1.9314731559       30.6105365772       21.4006813381  MEMB      53              0.0000000000
      5884        53  SAPS      P               3.5182068098       27.9713329321       20.6717699961  MEMB      53              0.0000000000
      5885        53  SAPS      O13             4.4539843331       27.2122752816       21.5848264740  MEMB      53              0.0000000000
      5886        53  SAPS      O14             2.1053652238       27.5268887298       20.6086055280  MEMB      53              0.0000000000
      5887        53  SAPS      O12             3.5670764655       29.5093927807       21.0181177533  MEMB      53              0.0000000000
      5888        53  SAPS      O11             4.2223556578       28.1560660365       19.3074663896  MEMB      53              0.0000000000
      5889        53  SAPS      C1              4.2818024375       27.0145566659       18.4200528642  MEMB      53              0.0000000000
      5890        53  SAPS      HA              5.1260102890       26.3657787767       18.7374186884  MEMB      53              0.0000000000
      5891        53  SAPS      HB              3.4142974251       26.3377095604       18.5737861697  MEMB      53              0.0000000000
      5892        53  SAPS      C2              4.2761550359       27.3153208513       16.8360023428  MEMB      53              0.0000000000
      5893        53  SAPS      HS              4.5804467460       26.3619025428       16.3535904320  MEMB      53              0.0000000000
      5894        53  SAPS      O21             5.2490862463       28.3066800533       16.5703162871  MEMB      53              0.0000000000
      5895        53  SAPS      C21             6.5506751826       27.8778473701       16.4559069424  MEMB      53              0.0000000000
      5896        53  SAPS      O22             6.9440660951       26.7575011686       16.4961528657  MEMB      53              0.0000000000
      5897        53  SAPS      C22             7.3610669507       29.1325498013       16.4851012678  MEMB      53              0.0000000000
      5898        53  SAPS      H2R             7.1970190179       29.5134058023       17.5158085511  MEMB      53              0.0000000000
      5899        53  SAPS      H2S             8.4513834272       28.9884406459       16.3277369625  MEMB      53              0.0000000000
      5900        53  SAPS      C3              2.8342336854       27.7136892373       16.4795195101  MEMB      53              0.0000000000
      5901        53  SAPS      HX              2.4896708625       28.4640868936       17.2228233431  MEMB      53              0.0000000000
      5902        53  SAPS      HY              2.1875364474       26.8112258453       16.4387349462  MEMB      53              0.0000000000
      5903        53  SAPS      O31             2.7511570109       28.2710800885       15.1373050512  MEMB      53              0.0000000000
      5904        53  SAPS      C31             2.6974254740       29.6601131344       15.0997889595  MEMB      53              0.0000000000
      5905        53  SAPS      O32             2.7504851934       30.3264846624       16.1504718709  MEMB      53              0.0000000000
      5906        53  SAPS      C32             2.4917540002       30.2775565548       13.6541324838  MEMB      53              0.0000000000
      5907        53  SAPS      H2X             1.4135836315       30.2328292604       13.3898054101  MEMB      53              0.0000000000
      5908        53  SAPS      H2Y             3.1562536651       29.5781528719       13.1031376634  MEMB      53              0.0000000000
      5909        53  SAPS      C23             7.0643315883       30.2407547999       15.4140071501  MEMB      53              0.0000000000
      5910        53  SAPS      H3R             7.8356333493       31.0180441178       15.6017204679  MEMB      53              0.0000000000
      5911        53  SAPS      H3S             6.0614202722       30.6360538420       15.6827607008  MEMB      53              0.0000000000
      5912        53  SAPS      C24             7.1501858276       29.8232672069       13.9336387195  MEMB      53              0.0000000000
      5913        53  SAPS      H4R             6.5033669330       28.9227412945       13.8629297550  MEMB      53              0.0000000000
      5914        53  SAPS      H4S             8.1552663403       29.4335008241       13.6649073773  MEMB      53              0.0000000000
      5915        53  SAPS      C25             6.6922218333       30.8749565068       13.0371918755  MEMB      53              0.0000000000
      5916        53  SAPS      H5R             6.7597015135       31.8782310290       13.4831590098  MEMB      53              0.0000000000
      5917        53  SAPS      C26             6.1911335463       30.8195609537       11.7853651504  MEMB      53              0.0000000000
      5918        53  SAPS      H6R             5.9417772743       31.7192601243       11.2036756605  MEMB      53              0.0000000000
      5919        53  SAPS      C27             6.0158641286       29.5489390004       11.0046776165  MEMB      53              0.0000000000
      5920        53  SAPS      H7R             5.9594054997       28.6640024297       11.6740214889  MEMB      53              0.0000000000
      5921        53  SAPS      H7S             6.9351737344       29.3783637228       10.4045989812  MEMB      53              0.0000000000
      5922        53  SAPS      C28             4.7692496760       29.5784991171       10.1164917638  MEMB      53              0.0000000000
      5923        53  SAPS      H8R             3.7971715447       29.7124887692       10.6135943419  MEMB      53              0.0000000000
      5924        53  SAPS      C29             4.7827692948       29.3764833111        8.7263435852  MEMB      53              0.0000000000
      5925        53  SAPS      H9R             3.8637770374       29.4753822592        8.1299610056  MEMB      53              0.0000000000
      5926        53  SAPS      C210            6.0513289075       29.0830068224        7.9377549039  MEMB      53              0.0000000000
      5927        53  SAPS      H10R            5.8103682368       28.4665905185        7.0454046002  MEMB      53              0.0000000000
      5928        53  SAPS      H10S            6.6430037861       28.4075547108        8.5919773806  MEMB      53              0.0000000000
      5929        53  SAPS      C211            7.0689806089       30.2308372941        7.6872797785  MEMB      53              0.0000000000
      5930        53  SAPS      H11R            7.3142972641       30.8367432259        8.5719816630  MEMB      53              0.0000000000
      5931        53  SAPS      C212            7.5355106851       30.5654882825        6.4540743725  MEMB      53              0.0000000000
      5932        53  SAPS      H12R            8.3194037944       31.3331942110        6.3757199015  MEMB      53              0.0000000000
      5933        53  SAPS      C213            7.1959233182       29.7896930367        5.1665478226  MEMB      53              0.0000000000
      5934        53  SAPS      H13R            7.3331773936       30.3485949755        4.2162263711  MEMB      53              0.0000000000
      5935        53  SAPS      H13S            6.1101755263       29.6413583944        5.3494949293  MEMB      53              0.0000000000
      5936        53  SAPS      C214            7.7570158135       28.4239650539        5.0755673601  MEMB      53              0.0000000000
      5937        53  SAPS      H14R            7.4914237814       27.7531810374        5.9059349121  MEMB      53              0.0000000000
      5938        53  SAPS      C215            8.3839769376       27.8007440934        4.0432520084  MEMB      53              0.0000000000
      5939        53  SAPS      H15R            8.7399319178       26.7711416217        4.1956170777  MEMB      53              0.0000000000
      5940        53  SAPS      C216            8.6334294817       28.4079733777        2.6840606826  MEMB      53              0.0000000000
      5941        53  SAPS      H16R            9.6783405564       28.7551419882        2.5358870763  MEMB      53              0.0000000000
      5942        53  SAPS      H16S            8.0933503655       29.3653408587        2.5225587045  MEMB      53              0.0000000000
      5943        53  SAPS      C217            8.3475068286       27.5085618125        1.4264192358  MEMB      53              0.0000000000
      5944        53  SAPS      H17R            7.2784849113       27.2064963882        1.4099995521  MEMB      53              0.0000000000
      5945        53  SAPS      H17S            9.0598133754       26.6594159081        1.5031747256  MEMB      53              0.0000000000
      5946        53  SAPS      C218            8.3509158754       28.2811955660        0.0014913217  MEMB      53              0.0000000000
      5947        53  SAPS      H18R            9.1166809916       27.9899042095       -0.7488898215  MEMB      53              0.0000000000
      5948        53  SAPS      H18S            8.6405868197       29.3022287266        0.3299774994  MEMB      53              0.0000000000
      5949        53  SAPS      C219            7.0199712322       28.4170728512       -0.6812168289  MEMB      53              0.0000000000
      5950        53  SAPS      H19R            6.3641561392       28.9834170825        0.0141118873  MEMB      53              0.0000000000
      5951        53  SAPS      H19S            6.5572838151       27.4414533332       -0.9427656346  MEMB      53              0.0000000000
      5952        53  SAPS      C220            7.2243659553       29.1501596143       -2.0649916092  MEMB      53              0.0000000000
      5953        53  SAPS      H20R            6.2171735638       29.1641657133       -2.5337006765  MEMB      53              0.0000000000
      5954        53  SAPS      H20S            7.8412113248       28.4764733048       -2.6974235768  MEMB      53              0.0000000000
      5955        53  SAPS      H20T            7.7603084668       30.1233427946       -2.0656588969  MEMB      53              0.0000000000
      5956        53  SAPS      C33             2.8952634591       31.7383744255       13.5929888393  MEMB      53              0.0000000000
      5957        53  SAPS      H3X             3.9782049873       31.7778541408       13.8379378808  MEMB      53              0.0000000000
      5958        53  SAPS      H3Y             2.3763727047       32.3541578192       14.3584194220  MEMB      53              0.0000000000
      5959        53  SAPS      C34             2.5629917991       32.3366356886       12.1871020587  MEMB      53              0.0000000000
      5960        53  SAPS      H4X             3.1039276427       31.6911137095       11.4625264909  MEMB      53              0.0000000000
      5961        53  SAPS      H4Y             2.9076888421       33.3883504295       12.2840615392  MEMB      53              0.0000000000
      5962        53  SAPS      C35             1.1603432505       32.4772891275       11.8547855174  MEMB      53              0.0000000000
      5963        53  SAPS      H5X             0.8055555709       33.3887112387       12.3818122199  MEMB      53              0.0000000000
      5964        53  SAPS      H5Y             0.5185622641       31.6164595145       12.1401107942  MEMB      53              0.0000000000
      5965        53  SAPS      C36             0.9213519781       32.7285908886       10.3942756658  MEMB      53              0.0000000000
      5966        53  SAPS      H6X             1.5990685036       33.4751343526        9.9276988174  MEMB      53              0.0000000000
      5967        53  SAPS      H6Y            -0.1142893214       33.1209035161       10.3056263054  MEMB      53              0.0000000000
      5968        53  SAPS      C37             0.7898786170       31.5255351354        9.3995362911  MEMB      53              0.0000000000
      5969        53  SAPS      H7X            -0.0560885872       30.9051361033        9.7652765030  MEMB      53              0.0000000000
      5970        53  SAPS      H7Y             1.6597429996       30.8401139203        9.3109094433  MEMB      53              0.0000000000
      5971        53  SAPS      C38             0.2931526153       31.9388005516        7.9876344555  MEMB      53              0.0000000000
      5972        53  SAPS      H8X             0.9248287932       32.7950785182        7.6681127884  MEMB      53              0.0000000000
      5973        53  SAPS      H8Y            -0.7612058617       32.2753896546        8.0843634781  MEMB      53              0.0000000000
      5974        53  SAPS      C39             0.4589613714       30.9495970564        6.8342026672  MEMB      53              0.0000000000
      5975        53  SAPS      H9X             0.2222955566       31.5166221680        5.9085721170  MEMB      53              0.0000000000
      5976        53  SAPS      H9Y            -0.2651292541       30.1228981542        6.9972450075  MEMB      53              0.0000000000
      5977        53  SAPS      C310            1.7236535829       30.1496763172        6.5584178541  MEMB      53              0.0000000000
      5978        53  SAPS      H10X            1.6075193373       29.3984918286        5.7481368840  MEMB      53              0.0000000000
      5979        53  SAPS      H10Y            1.7578631046       29.5524325358        7.4946074923  MEMB      53              0.0000000000
      5980        53  SAPS      C311            2.9722924420       30.9561191746        6.2510045127  MEMB      53              0.0000000000
      5981        53  SAPS      H11X            3.8061091468       30.2522287234        6.0421769730  MEMB      53              0.0000000000
      5982        53  SAPS      H11Y            3.4006999185       31.5088612409        7.1142915960  MEMB      53              0.0000000000
      5983        53  SAPS      C312            2.9636105358       31.8962307213        4.9813588498  MEMB      53              0.0000000000
      5984        53  SAPS      H12X            3.9902411970       32.3148252666        4.9097411407  MEMB      53              0.0000000000
      5985        53  SAPS      H12Y            2.2406119989       32.7246734424        5.1403444347  MEMB      53              0.0000000000
      5986        53  SAPS      C313            2.6712438631       31.2765841633        3.6134522528  MEMB      53              0.0000000000
      5987        53  SAPS      H13X            2.8143888897       32.0933214771        2.8740118338  MEMB      53              0.0000000000
      5988        53  SAPS      H13Y            1.6697655392       30.8030333358        3.5291212148  MEMB      53              0.0000000000
      5989        53  SAPS      C314            3.5580933054       29.9967029637        3.3056343925  MEMB      53              0.0000000000
      5990        53  SAPS      H14X            3.5940257224       29.1834968855        4.0617595223  MEMB      53              0.0000000000
      5991        53  SAPS      H14Y            4.5526195776       30.4860464035        3.2296000111  MEMB      53              0.0000000000
      5992        53  SAPS      C315            3.2407523680       29.1892337503        2.0514008627  MEMB      53              0.0000000000
      5993        53  SAPS      H15X            4.1369440074       28.6052363268        1.7512208598  MEMB      53              0.0000000000
      5994        53  SAPS      H15Y            3.1898976920       29.8845066639        1.1863396370  MEMB      53              0.0000000000
      5995        53  SAPS      C316            1.9350065442       28.3488891986        2.0181911198  MEMB      53              0.0000000000
      5996        53  SAPS      H16X            1.7353766723       28.0409922496        0.9695401410  MEMB      53              0.0000000000
      5997        53  SAPS      H16Y            1.0073002199       28.8580236131        2.3565153114  MEMB      53              0.0000000000
      5998        53  SAPS      C317            2.1455860525       27.0462200383        2.8579686624  MEMB      53              0.0000000000
      5999        53  SAPS      H17X            1.2170421368       26.4376667978        2.8156612277  MEMB      53              0.0000000000
      6000        53  SAPS      H17Y            2.2908706978       27.1917644682        3.9497702008  MEMB      53              0.0000000000
      6001        53  SAPS      C318            3.1624375462       25.9848464240        2.4559981176  MEMB      53              0.0000000000
      6002        53  SAPS      H18X            4.1411409084       26.4873087640        2.6108912606  MEMB      53              0.0000000000
      6003        53  SAPS      H18Y            3.1563829211       25.6624173094        1.3928309747  MEMB      53              0.0000000000
      6004        53  SAPS      H18Z            3.2481657675       25.1303547262        3.1608491393  MEMB      53              0.0000000000
      6005        54  CHL1      C3             -6.0534092734      -29.5054650014       17.3859500000  MEMB      54              0.0000000000
      6006        54  CHL1      H3             -5.5430992392      -28.5343170049       17.5613300000  MEMB      54              0.0000000000
      6007        54  CHL1      O3             -6.4375065266      -30.0758223986       18.6140500000  MEMB      54              0.0000000000
      6008        54  CHL1      H3'            -5.5990990421      -30.1980286258       19.0654100000  MEMB      54              0.0000000000
      6009        54  CHL1      C4             -7.2643951257      -29.2457181117       16.4842400000  MEMB      54              0.0000000000
      6010        54  CHL1      H4A            -7.9147643825      -30.1443519318       16.5458500000  MEMB      54              0.0000000000
      6011        54  CHL1      H4B            -7.8367484056      -28.4749905518       17.0434600000  MEMB      54              0.0000000000
      6012        54  CHL1      C5             -6.9207163300      -28.7077729467       15.1360100000  MEMB      54              0.0000000000
      6013        54  CHL1      C6             -7.5545075792      -27.6072581704       14.6184500000  MEMB      54              0.0000000000
      6014        54  CHL1      H6             -8.2730143378      -27.0552184591       15.2421400000  MEMB      54              0.0000000000
      6015        54  CHL1      C7             -7.3158210984      -27.0546667907       13.2260900000  MEMB      54              0.0000000000
      6016        54  CHL1      H7A            -8.2428675130      -26.5530978023       12.8748900000  MEMB      54              0.0000000000
      6017        54  CHL1      H7B            -6.4824697268      -26.3410282024       13.4009100000  MEMB      54              0.0000000000
      6018        54  CHL1      C8             -6.8682678643      -28.2548474860       12.3160300000  MEMB      54              0.0000000000
      6019        54  CHL1      H8             -7.7529017382      -28.9269315240       12.3089600000  MEMB      54              0.0000000000
      6020        54  CHL1      C14            -6.5195442787      -27.7429725070       10.9196200000  MEMB      54              0.0000000000
      6021        54  CHL1      H14            -5.6196560945      -27.1097566309       11.0731100000  MEMB      54              0.0000000000
      6022        54  CHL1      C15            -7.6078899545      -26.9341630008       10.1519000000  MEMB      54              0.0000000000
      6023        54  CHL1      H15A           -8.6103262496      -27.3861477938       10.3105400000  MEMB      54              0.0000000000
      6024        54  CHL1      H15B           -7.6383467610      -25.8893239667       10.5283600000  MEMB      54              0.0000000000
      6025        54  CHL1      C16            -7.1687887611      -26.9775795103        8.6626300000  MEMB      54              0.0000000000
      6026        54  CHL1      H16A           -7.8882003886      -27.5189439473        8.0117100000  MEMB      54              0.0000000000
      6027        54  CHL1      H16B           -6.7931215763      -25.9899807748        8.3193400000  MEMB      54              0.0000000000
      6028        54  CHL1      C17            -5.9038308586      -27.9825385356        8.6888300000  MEMB      54              0.0000000000
      6029        54  CHL1      H17            -4.9914943848      -27.3590396595        8.8038400000  MEMB      54              0.0000000000
      6030        54  CHL1      C13            -5.9761086527      -28.8267865480        9.9380000000  MEMB      54              0.0000000000
      6031        54  CHL1      C18            -7.0078518140      -29.9807580016        9.6622300000  MEMB      54              0.0000000000
      6032        54  CHL1      H18A           -7.8333345562      -29.6679944068        8.9876400000  MEMB      54              0.0000000000
      6033        54  CHL1      H18B           -6.4145686858      -30.8121997933        9.2251400000  MEMB      54              0.0000000000
      6034        54  CHL1      H18C           -7.3739335969      -30.5288138870       10.5566300000  MEMB      54              0.0000000000
      6035        54  CHL1      C12            -4.6994299191      -29.4123259671       10.5703200000  MEMB      54              0.0000000000
      6036        54  CHL1      H12A           -4.3649091579      -30.1883570206        9.8490900000  MEMB      54              0.0000000000
      6037        54  CHL1      H12B           -3.9650895434      -28.5808385094       10.6311300000  MEMB      54              0.0000000000
      6038        54  CHL1      C11            -4.8896765320      -29.9897040609       11.9918700000  MEMB      54              0.0000000000
      6039        54  CHL1      H11A           -5.4369755903      -30.9505563982       11.8843600000  MEMB      54              0.0000000000
      6040        54  CHL1      H11B           -3.9207247099      -30.2882661900       12.4460700000  MEMB      54              0.0000000000
      6041        54  CHL1      C9             -5.6594463423      -28.9989198083       12.9174600000  MEMB      54              0.0000000000
      6042        54  CHL1      H9             -4.9951143831      -28.1129508269       13.0071500000  MEMB      54              0.0000000000
      6043        54  CHL1      C10            -5.9479444244      -29.5804482297       14.3603600000  MEMB      54              0.0000000000
      6044        54  CHL1      C19            -6.6098765831      -30.9619619890       14.2002600000  MEMB      54              0.0000000000
      6045        54  CHL1      H19A           -7.4833731379      -31.0158456980       13.5158500000  MEMB      54              0.0000000000
      6046        54  CHL1      H19B           -5.8110251667      -31.5985063253       13.7632600000  MEMB      54              0.0000000000
      6047        54  CHL1      H19C           -6.9137582431      -31.4555738958       15.1480600000  MEMB      54              0.0000000000
      6048        54  CHL1      C1             -4.6558493017      -29.6720329617       15.3109100000  MEMB      54              0.0000000000
      6049        54  CHL1      H1A            -3.8915480510      -30.3140441568       14.8230800000  MEMB      54              0.0000000000
      6050        54  CHL1      H1B            -4.3362090659      -28.6285443097       15.5190200000  MEMB      54              0.0000000000
      6051        54  CHL1      C2             -4.8952716539      -30.2644001304       16.7142200000  MEMB      54              0.0000000000
      6052        54  CHL1      H2A            -3.9528510951      -30.3171050852       17.3002100000  MEMB      54              0.0000000000
      6053        54  CHL1      H2B            -5.2431051206      -31.3109140476       16.5795500000  MEMB      54              0.0000000000
      6054        54  CHL1      C20            -5.6699113113      -28.7573163253        7.3006100000  MEMB      54              0.0000000000
      6055        54  CHL1      H20            -6.4149564242      -29.5611268936        7.1186300000  MEMB      54              0.0000000000
      6056        54  CHL1      C21            -4.2420424677      -29.3069783889        7.2200000000  MEMB      54              0.0000000000
      6057        54  CHL1      H21A           -3.5017247808      -28.4880684450        7.3450700000  MEMB      54              0.0000000000
      6058        54  CHL1      H21B           -4.1755673342      -29.4963931569        6.1272900000  MEMB      54              0.0000000000
      6059        54  CHL1      H21C           -3.9320203360      -30.2555275075        7.7083100000  MEMB      54              0.0000000000
      6060        54  CHL1      C22            -5.8881857400      -27.8244361407        6.0928100000  MEMB      54              0.0000000000
      6061        54  CHL1      H22A           -6.7652805149      -27.1432554943        6.0607400000  MEMB      54              0.0000000000
      6062        54  CHL1      H22B           -4.9132694977      -27.3026762712        5.9849800000  MEMB      54              0.0000000000
      6063        54  CHL1      C23            -6.2168004100      -28.5384529746        4.7811000000  MEMB      54              0.0000000000
      6064        54  CHL1      H23A           -5.4356568305      -29.2781041633        4.5035100000  MEMB      54              0.0000000000
      6065        54  CHL1      H23B           -7.2121518285      -29.0316045276        4.8006400000  MEMB      54              0.0000000000
      6066        54  CHL1      C24            -6.1479335270      -27.5564180942        3.5127900000  MEMB      54              0.0000000000
      6067        54  CHL1      H24A           -6.9911837099      -26.8876232378        3.7884300000  MEMB      54              0.0000000000
      6068        54  CHL1      H24B           -5.1839583333      -27.0432279829        3.3085500000  MEMB      54              0.0000000000
      6069        54  CHL1      C25            -6.5780256135      -28.1493410982        2.1723600000  MEMB      54              0.0000000000
      6070        54  CHL1      H25            -6.5948638202      -27.3681373155        1.3825800000  MEMB      54              0.0000000000
      6071        54  CHL1      C26            -5.7652809373      -29.2853836026        1.7612400000  MEMB      54              0.0000000000
      6072        54  CHL1      H26A           -4.7042346582      -29.0289618393        1.5545000000  MEMB      54              0.0000000000
      6073        54  CHL1      H26B           -5.9334251865      -30.1142426460        2.4816900000  MEMB      54              0.0000000000
      6074        54  CHL1      H26C           -6.0350454779      -29.7024418630        0.7674500000  MEMB      54              0.0000000000
      6075        54  CHL1      C27            -8.1137853964      -28.5043931110        2.1629000000  MEMB      54              0.0000000000
      6076        54  CHL1      H27A           -8.6808187579      -27.5995192211        2.4695200000  MEMB      54              0.0000000000
      6077        54  CHL1      H27B           -8.4178337212      -28.7944022273        1.1344200000  MEMB      54              0.0000000000
      6078        54  CHL1      H27C           -8.4504711635      -29.2455999577        2.9189300000  MEMB      54              0.0000000000
      6079        55  CHL1      C3            -22.8635147047       18.9638252015       17.3737000000  MEMB      55              0.0000000000
      6080        55  CHL1      H3            -22.9672913628       17.8808134510       17.5987300000  MEMB      55              0.0000000000
      6081        55  CHL1      O3            -23.2418316830       19.4010015892       18.6263000000  MEMB      55              0.0000000000
      6082        55  CHL1      H3'           -24.0855897772       19.0427439938       18.9114800000  MEMB      55              0.0000000000
      6083        55  CHL1      C4            -21.4587555680       19.2607484487       16.9124200000  MEMB      55              0.0000000000
      6084        55  CHL1      H4A           -21.4190221421       20.3686961456       16.8404000000  MEMB      55              0.0000000000
      6085        55  CHL1      H4B           -20.7749205563       18.9101873072       17.7147900000  MEMB      55              0.0000000000
      6086        55  CHL1      C5            -21.1318234836       18.6211719149       15.6018200000  MEMB      55              0.0000000000
      6087        55  CHL1      C6            -20.0016132383       17.8778924072       15.3785100000  MEMB      55              0.0000000000
      6088        55  CHL1      H6            -19.2672004787       18.0036452818       16.1877200000  MEMB      55              0.0000000000
      6089        55  CHL1      C7            -19.5903596721       17.2760562790       14.0893400000  MEMB      55              0.0000000000
      6090        55  CHL1      H7A           -18.5166168457       17.3682355944       13.8193600000  MEMB      55              0.0000000000
      6091        55  CHL1      H7B           -19.6705510206       16.1685334418       14.1250500000  MEMB      55              0.0000000000
      6092        55  CHL1      C8            -20.4834220142       17.6509757708       12.9049800000  MEMB      55              0.0000000000
      6093        55  CHL1      H8            -20.2382657169       18.6491333546       12.4832000000  MEMB      55              0.0000000000
      6094        55  CHL1      C14           -20.4378110277       16.5258704704       11.9346100000  MEMB      55              0.0000000000
      6095        55  CHL1      H14           -20.9846321873       15.7072827107       12.4496100000  MEMB      55              0.0000000000
      6096        55  CHL1      C15           -19.0585364400       15.8766876038       11.4930200000  MEMB      55              0.0000000000
      6097        55  CHL1      H15A          -18.3528148683       16.7166522008       11.3177000000  MEMB      55              0.0000000000
      6098        55  CHL1      H15B          -18.6898032596       15.1081233000       12.2055200000  MEMB      55              0.0000000000
      6099        55  CHL1      C16           -19.4482530900       15.1856291959       10.1607100000  MEMB      55              0.0000000000
      6100        55  CHL1      H16A          -18.7763666528       15.4385857178        9.3128300000  MEMB      55              0.0000000000
      6101        55  CHL1      H16B          -19.0473262490       14.1538020174       10.2551700000  MEMB      55              0.0000000000
      6102        55  CHL1      C17           -20.9608934539       15.3829248590       10.0096000000  MEMB      55              0.0000000000
      6103        55  CHL1      H17           -21.4053767499       14.6112583808       10.6738900000  MEMB      55              0.0000000000
      6104        55  CHL1      C13           -21.3273815836       16.7402871011       10.7126500000  MEMB      55              0.0000000000
      6105        55  CHL1      C18           -20.7796150360       17.8786275901        9.8433100000  MEMB      55              0.0000000000
      6106        55  CHL1      H18A          -20.8569760514       18.8761909909       10.3262200000  MEMB      55              0.0000000000
      6107        55  CHL1      H18B          -19.6915140236       17.7189043761        9.6856900000  MEMB      55              0.0000000000
      6108        55  CHL1      H18C          -21.4249655858       17.8376913954        8.9398900000  MEMB      55              0.0000000000
      6109        55  CHL1      C12           -22.7666955113       16.8306902207       11.1964600000  MEMB      55              0.0000000000
      6110        55  CHL1      H12A          -23.6034385614       16.7436989413       10.4707700000  MEMB      55              0.0000000000
      6111        55  CHL1      H12B          -22.9617429928       15.8911707933       11.7564300000  MEMB      55              0.0000000000
      6112        55  CHL1      C11           -22.9577903758       17.9756734729       12.1421400000  MEMB      55              0.0000000000
      6113        55  CHL1      H11A          -22.7302255684       18.8909257101       11.5548900000  MEMB      55              0.0000000000
      6114        55  CHL1      H11B          -24.0328881894       18.0405475127       12.4146800000  MEMB      55              0.0000000000
      6115        55  CHL1      C9            -21.9401230732       17.7836949508       13.3641700000  MEMB      55              0.0000000000
      6116        55  CHL1      H9            -22.2713143678       16.8406057803       13.8491600000  MEMB      55              0.0000000000
      6117        55  CHL1      C10           -22.1692365733       18.8017623779       14.5447600000  MEMB      55              0.0000000000
      6118        55  CHL1      C19           -22.0399380977       20.1753560090       13.9155600000  MEMB      55              0.0000000000
      6119        55  CHL1      H19A          -22.1427077641       20.9990689782       14.6539700000  MEMB      55              0.0000000000
      6120        55  CHL1      H19B          -21.0601505245       20.2289175085       13.3945400000  MEMB      55              0.0000000000
      6121        55  CHL1      H19C          -22.8128082844       20.2154790715       13.1184500000  MEMB      55              0.0000000000
      6122        55  CHL1      C1            -23.6359639219       18.5740753647       15.1460400000  MEMB      55              0.0000000000
      6123        55  CHL1      H1A           -24.2886495434       18.8342339870       14.2854400000  MEMB      55              0.0000000000
      6124        55  CHL1      H1B           -23.7912840393       17.4983175788       15.3761500000  MEMB      55              0.0000000000
      6125        55  CHL1      C2            -23.8756175523       19.3510848897       16.3799100000  MEMB      55              0.0000000000
      6126        55  CHL1      H2A           -24.8605074478       19.0275524488       16.7794300000  MEMB      55              0.0000000000
      6127        55  CHL1      H2B           -23.9684752722       20.4571328901       16.3312300000  MEMB      55              0.0000000000
      6128        55  CHL1      C20           -21.5951344753       14.9948501086        8.6366000000  MEMB      55              0.0000000000
      6129        55  CHL1      H20           -22.5335711099       15.5895296759        8.6404100000  MEMB      55              0.0000000000
      6130        55  CHL1      C21           -22.0342500537       13.4891348735        8.5255200000  MEMB      55              0.0000000000
      6131        55  CHL1      H21A          -21.1563229270       12.8334766153        8.7090100000  MEMB      55              0.0000000000
      6132        55  CHL1      H21B          -22.3964164327       13.2407909771        7.5049900000  MEMB      55              0.0000000000
      6133        55  CHL1      H21C          -22.9218431138       13.3416225062        9.1772400000  MEMB      55              0.0000000000
      6134        55  CHL1      C22           -20.8752510923       15.5190884797        7.3749700000  MEMB      55              0.0000000000
      6135        55  CHL1      H22A          -20.4118469323       16.4998810811        7.6150200000  MEMB      55              0.0000000000
      6136        55  CHL1      H22B          -20.1388657160       14.7205680609        7.1416900000  MEMB      55              0.0000000000
      6137        55  CHL1      C23           -21.7885136053       15.8092812840        6.1640200000  MEMB      55              0.0000000000
      6138        55  CHL1      H23A          -22.2153337197       14.7889633539        6.0587000000  MEMB      55              0.0000000000
      6139        55  CHL1      H23B          -22.5646769674       16.5741899735        6.3803600000  MEMB      55              0.0000000000
      6140        55  CHL1      C24           -20.8565769873       15.9921677516        4.9380400000  MEMB      55              0.0000000000
      6141        55  CHL1      H24A          -20.3459713961       16.9488372067        5.1796700000  MEMB      55              0.0000000000
      6142        55  CHL1      H24B          -20.1848495043       15.1130088505        5.0390200000  MEMB      55              0.0000000000
      6143        55  CHL1      C25           -21.5409954388       16.0936679159        3.4928800000  MEMB      55              0.0000000000
      6144        55  CHL1      H25           -22.3783233964       16.8149112089        3.6069100000  MEMB      55              0.0000000000
      6145        55  CHL1      C26           -20.4785217062       16.6556642116        2.4870800000  MEMB      55              0.0000000000
      6146        55  CHL1      H26A          -20.0137426943       17.5721467556        2.9094300000  MEMB      55              0.0000000000
      6147        55  CHL1      H26B          -19.7390276754       15.8445017412        2.3154000000  MEMB      55              0.0000000000
      6148        55  CHL1      H26C          -21.0051521025       16.8795372787        1.5347900000  MEMB      55              0.0000000000
      6149        55  CHL1      C27           -22.1864912649       14.7482670973        3.0670500000  MEMB      55              0.0000000000
      6150        55  CHL1      H27A          -22.8355460792       14.3453919671        3.8737300000  MEMB      55              0.0000000000
      6151        55  CHL1      H27B          -22.6411392331       14.7772303832        2.0537400000  MEMB      55              0.0000000000
      6152        55  CHL1      H27C          -21.4054217017       13.9655612397        2.9592100000  MEMB      55              0.0000000000
      6153        56  SAPE      N             -14.9894766683       29.3091525417       19.5601432631  MEMB      56              0.0000000000
      6154        56  SAPE      HN1           -14.9411249262       28.2963855117       19.7915846417  MEMB      56              0.0000000000
      6155        56  SAPE      HN2           -15.9627620580       29.6463695725       19.4166153977  MEMB      56              0.0000000000
      6156        56  SAPE      HN3           -14.5310304243       29.4698887202       18.6405830691  MEMB      56              0.0000000000
      6157        56  SAPE      C12           -14.1217049624       30.0873966298       20.5797578702  MEMB      56              0.0000000000
      6158        56  SAPE      H12A          -14.7855851054       30.1854003206       21.4651840041  MEMB      56              0.0000000000
      6159        56  SAPE      H12B          -13.9608550789       31.0300770470       20.0142474929  MEMB      56              0.0000000000
      6160        56  SAPE      C11           -12.8683965025       29.3064863427       21.1243560026  MEMB      56              0.0000000000
      6161        56  SAPE      H11A          -13.1250338383       28.4014388239       21.7154120514  MEMB      56              0.0000000000
      6162        56  SAPE      H11B          -12.3830460653       29.8712089667       21.9488827298  MEMB      56              0.0000000000
      6163        56  SAPE      P             -11.2652736302       27.6992844657       19.7896016250  MEMB      56              0.0000000000
      6164        56  SAPE      O13            -9.7670225243       27.6918814261       19.9063133905  MEMB      56              0.0000000000
      6165        56  SAPE      O14           -11.9558148244       26.7061897638       20.5955526540  MEMB      56              0.0000000000
      6166        56  SAPE      O12           -11.8577229361       29.1674206859       20.1480114656  MEMB      56              0.0000000000
      6167        56  SAPE      O11           -11.7222439533       27.7134977436       18.2962637255  MEMB      56              0.0000000000
      6168        56  SAPE      C1            -11.0738819281       28.5453893711       17.3805691311  MEMB      56              0.0000000000
      6169        56  SAPE      HA            -10.8285437783       29.5253630540       17.8429347584  MEMB      56              0.0000000000
      6170        56  SAPE      HB            -10.1435588472       28.0490141181       17.0306669781  MEMB      56              0.0000000000
      6171        56  SAPE      C2            -12.0463261139       28.8677145974       16.1665615151  MEMB      56              0.0000000000
      6172        56  SAPE      HS            -12.8368238185       29.4722610174       16.6604823182  MEMB      56              0.0000000000
      6173        56  SAPE      O21           -12.4579085388       27.5215127745       15.7032112191  MEMB      56              0.0000000000
      6174        56  SAPE      C21           -13.7838542060       27.4609126216       15.3668021271  MEMB      56              0.0000000000
      6175        56  SAPE      O22           -14.6871798556       28.2473690354       15.5769466469  MEMB      56              0.0000000000
      6176        56  SAPE      C22           -13.9116613891       26.1602759282       14.4308108399  MEMB      56              0.0000000000
      6177        56  SAPE      H2R           -13.0867536283       26.0861572210       13.6903013299  MEMB      56              0.0000000000
      6178        56  SAPE      H2S           -14.0990035272       25.1895446675       14.9376682351  MEMB      56              0.0000000000
      6179        56  SAPE      C3            -11.3448693026       29.6063984274       15.0303925583  MEMB      56              0.0000000000
      6180        56  SAPE      HX            -10.5454296854       28.8972211856       14.7266081879  MEMB      56              0.0000000000
      6181        56  SAPE      HY            -10.7415387752       30.4718333391       15.3787254403  MEMB      56              0.0000000000
      6182        56  SAPE      O31           -12.2762573992       29.8245924569       13.9029010842  MEMB      56              0.0000000000
      6183        56  SAPE      C31           -12.9552032900       30.9277122347       14.0047253678  MEMB      56              0.0000000000
      6184        56  SAPE      O32           -12.8802661435       31.7152162671       14.9650744507  MEMB      56              0.0000000000
      6185        56  SAPE      C32           -13.8703807420       31.0922361648       12.7836646149  MEMB      56              0.0000000000
      6186        56  SAPE      H2X           -14.2237661677       32.1449218823       12.8196176598  MEMB      56              0.0000000000
      6187        56  SAPE      H2Y           -14.8030411742       30.4998876940       12.6670936654  MEMB      56              0.0000000000
      6188        56  SAPE      C23           -15.3287533876       26.2822849141       13.7145046303  MEMB      56              0.0000000000
      6189        56  SAPE      H3R           -16.0623658519       26.7854366225       14.3800663064  MEMB      56              0.0000000000
      6190        56  SAPE      H3S           -15.6822452246       25.2469513701       13.5209883759  MEMB      56              0.0000000000
      6191        56  SAPE      C24           -15.2033227517       27.2521327759       12.4046811173  MEMB      56              0.0000000000
      6192        56  SAPE      H4R           -14.3553590563       26.8935490256       11.7828315804  MEMB      56              0.0000000000
      6193        56  SAPE      H4S           -14.9307055923       28.2279664841       12.8604764054  MEMB      56              0.0000000000
      6194        56  SAPE      C25           -16.5758250454       27.3873666961       11.7525571892  MEMB      56              0.0000000000
      6195        56  SAPE      H5R           -17.3204368636       27.9961464511       12.2863554070  MEMB      56              0.0000000000
      6196        56  SAPE      C26           -16.8801873185       26.8451124891       10.5761102746  MEMB      56              0.0000000000
      6197        56  SAPE      H6R           -17.8479549836       27.1765668738       10.1716798852  MEMB      56              0.0000000000
      6198        56  SAPE      C27           -16.0017416780       26.0143743062        9.7020086358  MEMB      56              0.0000000000
      6199        56  SAPE      H7R           -16.0845984968       24.9458725322        9.9948562691  MEMB      56              0.0000000000
      6200        56  SAPE      H7S           -14.9196604795       26.2661352632        9.7081750939  MEMB      56              0.0000000000
      6201        56  SAPE      C28           -16.5662386037       26.0149522972        8.2786211083  MEMB      56              0.0000000000
      6202        56  SAPE      H8R           -17.6366309845       25.8005314465        8.1434034417  MEMB      56              0.0000000000
      6203        56  SAPE      C29           -15.8036660470       26.1215578563        7.1422247002  MEMB      56              0.0000000000
      6204        56  SAPE      H9R           -16.2643349404       26.1061525748        6.1434520791  MEMB      56              0.0000000000
      6205        56  SAPE      C210          -14.3328902372       26.2452205974        7.0934070656  MEMB      56              0.0000000000
      6206        56  SAPE      H10R          -14.0020851193       26.5953893271        8.0945419381  MEMB      56              0.0000000000
      6207        56  SAPE      H10S          -14.0498497521       27.0273860327        6.3569110940  MEMB      56              0.0000000000
      6208        56  SAPE      C211          -13.5668852916       24.9835839019        6.7578834603  MEMB      56              0.0000000000
      6209        56  SAPE      H11R          -13.1327184503       24.5902520612        7.6888984749  MEMB      56              0.0000000000
      6210        56  SAPE      C212          -13.4172055095       24.3222208042        5.5810741494  MEMB      56              0.0000000000
      6211        56  SAPE      H12R          -12.8641490154       23.3714230862        5.5916608880  MEMB      56              0.0000000000
      6212        56  SAPE      C213          -14.0677893035       24.7875971351        4.2985958169  MEMB      56              0.0000000000
      6213        56  SAPE      H13R          -13.6122154481       25.7388618113        3.9494995186  MEMB      56              0.0000000000
      6214        56  SAPE      H13S          -15.1415621477       25.0130920182        4.4731954644  MEMB      56              0.0000000000
      6215        56  SAPE      C214          -14.0087970158       23.6914481583        3.1854347298  MEMB      56              0.0000000000
      6216        56  SAPE      H14R          -13.5398980345       22.7437139762        3.4886402199  MEMB      56              0.0000000000
      6217        56  SAPE      C215          -14.5891053769       23.8534506763        1.9719833443  MEMB      56              0.0000000000
      6218        56  SAPE      H15R          -14.3335600397       23.0550656222        1.2597488472  MEMB      56              0.0000000000
      6219        56  SAPE      C216          -15.2654589052       25.0891282223        1.4898952553  MEMB      56              0.0000000000
      6220        56  SAPE      H16R          -15.5643498279       25.7555313632        2.3270877907  MEMB      56              0.0000000000
      6221        56  SAPE      H16S          -16.2526242081       24.7622423229        1.0987781594  MEMB      56              0.0000000000
      6222        56  SAPE      C217          -14.5040851658       26.0378169743        0.4411720345  MEMB      56              0.0000000000
      6223        56  SAPE      H17R          -15.2998949679       26.6901463503        0.0222763131  MEMB      56              0.0000000000
      6224        56  SAPE      H17S          -14.0369710620       25.4752865724       -0.3952995231  MEMB      56              0.0000000000
      6225        56  SAPE      C218          -13.5304392670       27.0401293190        1.0349887917  MEMB      56              0.0000000000
      6226        56  SAPE      H18R          -12.8084495904       26.3856645946        1.5685867379  MEMB      56              0.0000000000
      6227        56  SAPE      H18S          -14.0811204128       27.7171466776        1.7225345681  MEMB      56              0.0000000000
      6228        56  SAPE      C219          -12.8791090686       27.9846388026        0.0388435433  MEMB      56              0.0000000000
      6229        56  SAPE      H19R          -12.0484079018       27.5893508778       -0.5840564659  MEMB      56              0.0000000000
      6230        56  SAPE      H19S          -12.5327110285       28.7322218890        0.7841285775  MEMB      56              0.0000000000
      6231        56  SAPE      C220          -13.8153828396       28.6209810970       -0.9573303153  MEMB      56              0.0000000000
      6232        56  SAPE      H20R          -14.1611704806       27.9224273797       -1.7490211418  MEMB      56              0.0000000000
      6233        56  SAPE      H20S          -13.4043614991       29.4555369201       -1.5647006919  MEMB      56              0.0000000000
      6234        56  SAPE      H20T          -14.6976006172       29.0708523570       -0.4537139823  MEMB      56              0.0000000000
      6235        56  SAPE      C33           -13.2242027004       30.9969786365       11.3437112877  MEMB      56              0.0000000000
      6236        56  SAPE      H3X           -13.0349060124       29.9206393931       11.1437572548  MEMB      56              0.0000000000
      6237        56  SAPE      H3Y           -12.2335068545       31.4993672104       11.3225454400  MEMB      56              0.0000000000
      6238        56  SAPE      C34           -14.1459168764       31.4218319188       10.2062295983  MEMB      56              0.0000000000
      6239        56  SAPE      H4X           -14.5256561481       32.4658039659       10.1906971047  MEMB      56              0.0000000000
      6240        56  SAPE      H4Y           -15.0726856725       30.8093566031       10.1890701363  MEMB      56              0.0000000000
      6241        56  SAPE      C35           -13.5269243308       31.0559742749        8.8258956978  MEMB      56              0.0000000000
      6242        56  SAPE      H5X           -12.9518417753       30.1236684709        9.0113863061  MEMB      56              0.0000000000
      6243        56  SAPE      H5Y           -12.7647966940       31.8429137682        8.6409401009  MEMB      56              0.0000000000
      6244        56  SAPE      C36           -14.5979321905       30.9077239850        7.7474750588  MEMB      56              0.0000000000
      6245        56  SAPE      H6X           -15.1761616876       31.8563685944        7.7407955239  MEMB      56              0.0000000000
      6246        56  SAPE      H6Y           -15.2950589333       30.0936921368        8.0401996682  MEMB      56              0.0000000000
      6247        56  SAPE      C37           -14.0154447209       30.5654516851        6.3910678933  MEMB      56              0.0000000000
      6248        56  SAPE      H7X           -13.4381010638       29.6238975178        6.5113643715  MEMB      56              0.0000000000
      6249        56  SAPE      H7Y           -13.2708228356       31.3443508039        6.1205581734  MEMB      56              0.0000000000
      6250        56  SAPE      C38           -15.0304342089       30.3338711485        5.2825168679  MEMB      56              0.0000000000
      6251        56  SAPE      H8X           -15.8277427119       31.1019319260        5.3758071969  MEMB      56              0.0000000000
      6252        56  SAPE      H8Y           -15.5418443504       29.3655092098        5.4697488854  MEMB      56              0.0000000000
      6253        56  SAPE      C39           -14.4451721512       30.2584674524        3.9426750252  MEMB      56              0.0000000000
      6254        56  SAPE      H9X           -15.2194600751       30.1182877272        3.1583599160  MEMB      56              0.0000000000
      6255        56  SAPE      H9Y           -13.9279589675       29.2772761920        3.8788379738  MEMB      56              0.0000000000
      6256        56  SAPE      C310          -13.5343698828       31.4087078929        3.4543823311  MEMB      56              0.0000000000
      6257        56  SAPE      H10X          -12.7095360100       31.5327585081        4.1882633278  MEMB      56              0.0000000000
      6258        56  SAPE      H10Y          -14.1895781536       32.3010830639        3.5475982735  MEMB      56              0.0000000000
      6259        56  SAPE      C311          -13.0471255998       31.1674577547        2.0876182625  MEMB      56              0.0000000000
      6260        56  SAPE      H11X          -13.9219791904       31.0822971285        1.4081329415  MEMB      56              0.0000000000
      6261        56  SAPE      H11Y          -12.4639729581       30.2380109664        2.2619251320  MEMB      56              0.0000000000
      6262        56  SAPE      C312          -12.1140270560       32.1986148604        1.4196018288  MEMB      56              0.0000000000
      6263        56  SAPE      H12X          -11.1343741570       32.2461810403        1.9414638588  MEMB      56              0.0000000000
      6264        56  SAPE      H12Y          -12.5181207548       33.2325596177        1.4641880105  MEMB      56              0.0000000000
      6265        56  SAPE      C313          -11.6182603944       31.8826949338       -0.0308357170  MEMB      56              0.0000000000
      6266        56  SAPE      H13X          -12.4637628750       32.0048110955       -0.7411418846  MEMB      56              0.0000000000
      6267        56  SAPE      H13Y          -11.2098228476       30.8507064018       -0.0808330467  MEMB      56              0.0000000000
      6268        56  SAPE      C314          -10.6306370658       32.8806771827       -0.4556022575  MEMB      56              0.0000000000
      6269        56  SAPE      H14X           -9.7247783169       32.5476997016        0.0947307656  MEMB      56              0.0000000000
      6270        56  SAPE      H14Y          -10.8370974522       33.9142354763       -0.1042457511  MEMB      56              0.0000000000
      6271        56  SAPE      C315          -10.3773704938       32.9419063418       -1.9876571586  MEMB      56              0.0000000000
      6272        56  SAPE      H15X           -9.5919275744       33.6874110381       -2.2358966758  MEMB      56              0.0000000000
      6273        56  SAPE      H15Y          -11.3417936377       33.2265780866       -2.4600673606  MEMB      56              0.0000000000
      6274        56  SAPE      C316          -10.0537342210       31.6031404918       -2.6910491874  MEMB      56              0.0000000000
      6275        56  SAPE      H16X          -10.2133807479       31.6928563754       -3.7868514945  MEMB      56              0.0000000000
      6276        56  SAPE      H16Y          -10.9196296561       30.9176916973       -2.5697799613  MEMB      56              0.0000000000
      6277        56  SAPE      C317           -8.7043582757       30.9203796498       -2.4450012138  MEMB      56              0.0000000000
      6278        56  SAPE      H17X           -8.4617597072       30.9791164575       -1.3624034812  MEMB      56              0.0000000000
      6279        56  SAPE      H17Y           -7.8975053401       31.4020251610       -3.0377288749  MEMB      56              0.0000000000
      6280        56  SAPE      C318           -8.8058529390       29.4164407972       -2.7644439628  MEMB      56              0.0000000000
      6281        56  SAPE      H18X           -9.2138508515       29.2820577914       -3.7890411308  MEMB      56              0.0000000000
      6282        56  SAPE      H18Y           -9.5304314882       28.8048491151       -2.1854263236  MEMB      56              0.0000000000
      6283        56  SAPE      H18Z           -7.8465480195       28.8749212097       -2.6201816490  MEMB      56              0.0000000000
      6284        57  SAPE      N              17.8813969162      -25.0973003447       18.9848701532  MEMB      57              0.0000000000
      6285        57  SAPE      HN1            18.7889864349      -25.4274957381       18.5990562051  MEMB      57              0.0000000000
      6286        57  SAPE      HN2            17.7935355081      -24.0675796864       18.8684412357  MEMB      57              0.0000000000
      6287        57  SAPE      HN3            17.9535491110      -25.2965730777       20.0030471255  MEMB      57              0.0000000000
      6288        57  SAPE      C12            16.5407625906      -25.7063463315       18.5883408898  MEMB      57              0.0000000000
      6289        57  SAPE      H12A           16.5420501040      -25.3927081650       17.5225309997  MEMB      57              0.0000000000
      6290        57  SAPE      H12B           15.7546354360      -25.2348295387       19.2160326787  MEMB      57              0.0000000000
      6291        57  SAPE      C11            16.5931326973      -27.2219081001       18.7193295983  MEMB      57              0.0000000000
      6292        57  SAPE      H11A           17.5224982882      -27.5914589341       18.2355603866  MEMB      57              0.0000000000
      6293        57  SAPE      H11B           15.7400452201      -27.5840645156       18.1066261976  MEMB      57              0.0000000000
      6294        57  SAPE      P              17.7997326540      -28.2611971320       20.8560583075  MEMB      57              0.0000000000
      6295        57  SAPE      O13            18.5780315863      -27.0598557812       21.1789806681  MEMB      57              0.0000000000
      6296        57  SAPE      O14            17.3827221343      -29.1756742945       21.9274522285  MEMB      57              0.0000000000
      6297        57  SAPE      O12            16.5628278782      -27.6922054488       20.0386486099  MEMB      57              0.0000000000
      6298        57  SAPE      O11            18.4795364745      -29.1575422420       19.7063195821  MEMB      57              0.0000000000
      6299        57  SAPE      C1             19.7722685410      -29.6797142661       19.7037951305  MEMB      57              0.0000000000
      6300        57  SAPE      HA             20.5146832949      -29.0384442301       20.2252488269  MEMB      57              0.0000000000
      6301        57  SAPE      HB             19.7401794514      -30.6532284648       20.2381745570  MEMB      57              0.0000000000
      6302        57  SAPE      C2             20.1527011560      -30.0726721480       18.2471078872  MEMB      57              0.0000000000
      6303        57  SAPE      HS             21.2301831272      -30.3127566301       18.3724577056  MEMB      57              0.0000000000
      6304        57  SAPE      O21            19.7850917406      -29.0178025929       17.3513382921  MEMB      57              0.0000000000
      6305        57  SAPE      C21            20.5043399154      -27.9042385834       17.4379458883  MEMB      57              0.0000000000
      6306        57  SAPE      O22            21.3336153232      -27.6375745383       18.2997778100  MEMB      57              0.0000000000
      6307        57  SAPE      C22            20.2300932534      -27.0191625066       16.2406733077  MEMB      57              0.0000000000
      6308        57  SAPE      H2R            19.5007243654      -27.4599738970       15.5279129304  MEMB      57              0.0000000000
      6309        57  SAPE      H2S            19.9345415846      -26.0211391712       16.6291568675  MEMB      57              0.0000000000
      6310        57  SAPE      C3             19.5367706357      -31.4145946283       17.6491095313  MEMB      57              0.0000000000
      6311        57  SAPE      HX             19.7107178024      -32.3014486663       18.2952933661  MEMB      57              0.0000000000
      6312        57  SAPE      HY             19.9595320022      -31.7433387698       16.6757027438  MEMB      57              0.0000000000
      6313        57  SAPE      O31            18.1241979000      -31.2695823826       17.4930494679  MEMB      57              0.0000000000
      6314        57  SAPE      C31            17.6123971050      -31.5099123562       16.2082384235  MEMB      57              0.0000000000
      6315        57  SAPE      O32            18.1869340462      -31.9640514484       15.2633191605  MEMB      57              0.0000000000
      6316        57  SAPE      C32            16.1312596160      -31.1043659499       16.2373832403  MEMB      57              0.0000000000
      6317        57  SAPE      H2X            15.8216396406      -30.6242506980       17.1902450969  MEMB      57              0.0000000000
      6318        57  SAPE      H2Y            15.4959025114      -31.9850600006       16.0028201640  MEMB      57              0.0000000000
      6319        57  SAPE      C23            21.5907199167      -26.8788912635       15.4935954323  MEMB      57              0.0000000000
      6320        57  SAPE      H3R            22.2888344098      -26.3122561118       16.1461916135  MEMB      57              0.0000000000
      6321        57  SAPE      H3S            21.4645472193      -26.2991062081       14.5543132740  MEMB      57              0.0000000000
      6322        57  SAPE      C24            22.1894301758      -28.1957401485       14.9691259394  MEMB      57              0.0000000000
      6323        57  SAPE      H4R            22.6912411778      -28.8525833407       15.7114623643  MEMB      57              0.0000000000
      6324        57  SAPE      H4S            23.0739186952      -27.8484872053       14.3934383043  MEMB      57              0.0000000000
      6325        57  SAPE      C25            21.2606150826      -29.0963965946       14.2101538452  MEMB      57              0.0000000000
      6326        57  SAPE      H5R            20.5696178163      -29.6654131000       14.8494839243  MEMB      57              0.0000000000
      6327        57  SAPE      C26            21.1218581766      -29.1773637756       12.9126923473  MEMB      57              0.0000000000
      6328        57  SAPE      H6R            20.3863217381      -29.9085087928       12.5460685226  MEMB      57              0.0000000000
      6329        57  SAPE      C27            21.9205109891      -28.3901374846       11.8139773960  MEMB      57              0.0000000000
      6330        57  SAPE      H7R            22.5840559701      -27.5582790811       12.1334155075  MEMB      57              0.0000000000
      6331        57  SAPE      H7S            21.1993374572      -27.8615807074       11.1545404390  MEMB      57              0.0000000000
      6332        57  SAPE      C28            22.7813210524      -29.4079854574       11.1251512241  MEMB      57              0.0000000000
      6333        57  SAPE      H8R            23.6501230409      -29.7181149392       11.7243197014  MEMB      57              0.0000000000
      6334        57  SAPE      C29            22.6137679180      -29.9486266078        9.9504362376  MEMB      57              0.0000000000
      6335        57  SAPE      H9R            23.4102892937      -30.6034923532        9.5674164799  MEMB      57              0.0000000000
      6336        57  SAPE      C210           21.5439664321      -29.6685978001        8.9400864375  MEMB      57              0.0000000000
      6337        57  SAPE      H10R           21.9211325249      -29.1013921921        8.0623936787  MEMB      57              0.0000000000
      6338        57  SAPE      H10S           20.7300736212      -29.0188745422        9.3270734044  MEMB      57              0.0000000000
      6339        57  SAPE      C211           20.8579147716      -30.9789103371        8.4703649460  MEMB      57              0.0000000000
      6340        57  SAPE      H11R           21.5534395818      -31.8172542211        8.3173145631  MEMB      57              0.0000000000
      6341        57  SAPE      C212           19.5700770880      -31.2738537570        8.2614659376  MEMB      57              0.0000000000
      6342        57  SAPE      H12R           19.3538156618      -32.2906580878        7.9018278813  MEMB      57              0.0000000000
      6343        57  SAPE      C213           18.4119361348      -30.3218617827        8.4236282227  MEMB      57              0.0000000000
      6344        57  SAPE      H13R           18.2034535071      -29.9293809564        7.4053873390  MEMB      57              0.0000000000
      6345        57  SAPE      H13S           18.6601645160      -29.3265373256        8.8502814766  MEMB      57              0.0000000000
      6346        57  SAPE      C214           17.2213665271      -30.9136438388        9.1800972643  MEMB      57              0.0000000000
      6347        57  SAPE      H14R           17.3010998659      -30.9019111666       10.2771410443  MEMB      57              0.0000000000
      6348        57  SAPE      C215           16.1787839603      -31.5232075038        8.5760327461  MEMB      57              0.0000000000
      6349        57  SAPE      H15R           15.3561552513      -31.7818983390        9.2589389194  MEMB      57              0.0000000000
      6350        57  SAPE      C216           15.9515029169      -31.7048158734        7.0593248096  MEMB      57              0.0000000000
      6351        57  SAPE      H16R           15.2011932490      -32.5156869565        6.9416616777  MEMB      57              0.0000000000
      6352        57  SAPE      H16S           16.8535603118      -32.2317409250        6.6812200226  MEMB      57              0.0000000000
      6353        57  SAPE      C217           15.6232158084      -30.4813745092        6.1492673288  MEMB      57              0.0000000000
      6354        57  SAPE      H17R           16.3989049805      -29.6961164396        6.2757482772  MEMB      57              0.0000000000
      6355        57  SAPE      H17S           14.7211392301      -29.9727200135        6.5515732792  MEMB      57              0.0000000000
      6356        57  SAPE      C218           15.4858828136      -30.6773334425        4.6550023892  MEMB      57              0.0000000000
      6357        57  SAPE      H18R           14.5400031165      -31.2400021103        4.5032227573  MEMB      57              0.0000000000
      6358        57  SAPE      H18S           16.3654310626      -31.3116124736        4.4133276274  MEMB      57              0.0000000000
      6359        57  SAPE      C219           15.7176815049      -29.3700625158        3.8956261383  MEMB      57              0.0000000000
      6360        57  SAPE      H19R           16.7028841787      -28.8821635329        4.0557850910  MEMB      57              0.0000000000
      6361        57  SAPE      H19S           14.8796653611      -28.7767330672        4.3199025936  MEMB      57              0.0000000000
      6362        57  SAPE      C220           15.4868056962      -29.5470019241        2.4030883425  MEMB      57              0.0000000000
      6363        57  SAPE      H20R           16.2991462842      -30.2124304828        2.0402815554  MEMB      57              0.0000000000
      6364        57  SAPE      H20S           15.5978470630      -28.5276336890        1.9754446989  MEMB      57              0.0000000000
      6365        57  SAPE      H20T           14.5117599878      -30.0451756187        2.2148614783  MEMB      57              0.0000000000
      6366        57  SAPE      C33            15.8771198449      -30.0597857299       15.1114449069  MEMB      57              0.0000000000
      6367        57  SAPE      H3X            14.8041243968      -29.7727230215       15.0870148743  MEMB      57              0.0000000000
      6368        57  SAPE      H3Y            16.0525662191      -30.5745092462       14.1426315548  MEMB      57              0.0000000000
      6369        57  SAPE      C34            16.6388681713      -28.7496715895       15.2024121291  MEMB      57              0.0000000000
      6370        57  SAPE      H4X            17.7188123114      -28.7497516240       14.9415637515  MEMB      57              0.0000000000
      6371        57  SAPE      H4Y            16.6856660474      -28.4148243741       16.2607164208  MEMB      57              0.0000000000
      6372        57  SAPE      C35            15.9972290358      -27.5470522434       14.4812670753  MEMB      57              0.0000000000
      6373        57  SAPE      H5X            16.6724972412      -26.6995734605       14.7264475146  MEMB      57              0.0000000000
      6374        57  SAPE      H5Y            14.9936012598      -27.6362471811       14.9493448062  MEMB      57              0.0000000000
      6375        57  SAPE      C36            15.8578809490      -27.6718751449       12.9290164309  MEMB      57              0.0000000000
      6376        57  SAPE      H6X            15.1994122659      -26.8206898819       12.6529294781  MEMB      57              0.0000000000
      6377        57  SAPE      H6Y            15.4630319767      -28.6712852970       12.6468912242  MEMB      57              0.0000000000
      6378        57  SAPE      C37            17.1092958536      -27.4299241173       12.1610761496  MEMB      57              0.0000000000
      6379        57  SAPE      H7X            17.7252581326      -28.3284571916       12.3791350088  MEMB      57              0.0000000000
      6380        57  SAPE      H7Y            17.6633369763      -26.5704181245       12.5953674041  MEMB      57              0.0000000000
      6381        57  SAPE      C38            16.6740470925      -27.1885721594       10.6975360173  MEMB      57              0.0000000000
      6382        57  SAPE      H8X            15.7822511862      -26.5295682009       10.7663484737  MEMB      57              0.0000000000
      6383        57  SAPE      H8Y            16.2707185748      -28.1604651591       10.3410657259  MEMB      57              0.0000000000
      6384        57  SAPE      C39            17.8165160709      -26.6218353442        9.7916736648  MEMB      57              0.0000000000
      6385        57  SAPE      H9X            18.6745929438      -27.3248562875        9.7301378260  MEMB      57              0.0000000000
      6386        57  SAPE      H9Y            18.0613685144      -25.6759654080       10.3205387130  MEMB      57              0.0000000000
      6387        57  SAPE      C310           17.3218503134      -26.3170256915        8.3217551608  MEMB      57              0.0000000000
      6388        57  SAPE      H10X           16.3035275841      -25.8845235587        8.4231542417  MEMB      57              0.0000000000
      6389        57  SAPE      H10Y           17.2042570551      -27.3030536012        7.8235163766  MEMB      57              0.0000000000
      6390        57  SAPE      C311           18.3974717383      -25.4772191120        7.5436816889  MEMB      57              0.0000000000
      6391        57  SAPE      H11X           18.8383218481      -24.6663287814        8.1620901300  MEMB      57              0.0000000000
      6392        57  SAPE      H11Y           17.9307096603      -24.9887312613        6.6617327744  MEMB      57              0.0000000000
      6393        57  SAPE      C312           19.4782674732      -26.4675915136        7.1427376460  MEMB      57              0.0000000000
      6394        57  SAPE      H12X           18.9832812654      -27.3616355820        6.7068541206  MEMB      57              0.0000000000
      6395        57  SAPE      H12Y           20.0257107521      -26.8029383922        8.0494735254  MEMB      57              0.0000000000
      6396        57  SAPE      C313           20.4009245742      -25.9234471806        6.0435432920  MEMB      57              0.0000000000
      6397        57  SAPE      H13X           21.2137713111      -26.6691586020        5.9111960127  MEMB      57              0.0000000000
      6398        57  SAPE      H13Y           20.8451534698      -24.9505496671        6.3442956240  MEMB      57              0.0000000000
      6399        57  SAPE      C314           19.7107040438      -25.6967418091        4.6955486520  MEMB      57              0.0000000000
      6400        57  SAPE      H14X           19.0206756723      -24.8491815171        4.8951046938  MEMB      57              0.0000000000
      6401        57  SAPE      H14Y           19.1134578831      -26.6235286897        4.5588577583  MEMB      57              0.0000000000
      6402        57  SAPE      C315           20.5586311645      -25.3857378135        3.4472842049  MEMB      57              0.0000000000
      6403        57  SAPE      H15X           21.3315205064      -24.6153242313        3.6556737487  MEMB      57              0.0000000000
      6404        57  SAPE      H15Y           19.8891502140      -25.1155046960        2.6028382942  MEMB      57              0.0000000000
      6405        57  SAPE      C316           21.3675660283      -26.5893261786        2.8157257009  MEMB      57              0.0000000000
      6406        57  SAPE      H16X           20.5842820983      -27.3252577437        2.5343151684  MEMB      57              0.0000000000
      6407        57  SAPE      H16Y           22.0662914517      -26.9030333655        3.6205197950  MEMB      57              0.0000000000
      6408        57  SAPE      C317           22.3076438808      -26.3237722126        1.5864372435  MEMB      57              0.0000000000
      6409        57  SAPE      H17X           22.6376721329      -27.2972854985        1.1649226279  MEMB      57              0.0000000000
      6410        57  SAPE      H17Y           23.2564794380      -25.8209496748        1.8713957386  MEMB      57              0.0000000000
      6411        57  SAPE      C318           21.6278201142      -25.5503464867        0.4837299173  MEMB      57              0.0000000000
      6412        57  SAPE      H18X           20.7820690679      -26.0948930361        0.0120360865  MEMB      57              0.0000000000
      6413        57  SAPE      H18Y           22.3283425832      -25.2978752583       -0.3407992004  MEMB      57              0.0000000000
      6414        57  SAPE      H18Z           21.1009632046      -24.5980651203        0.7071198967  MEMB      57              0.0000000000
      6415        58  OSM       N             -32.9165462800       -4.4113926991       22.4606682831  MEMB      58              0.0000000000
      6416        58  OSM       C15           -34.2385486027       -3.8160104196       22.7876332050  MEMB      58              0.0000000000
      6417        58  OSM       H15A          -34.4432426168       -3.9573759313       23.8385927724  MEMB      58              0.0000000000
      6418        58  OSM       H15B          -35.0688176526       -4.3357722494       22.3327695862  MEMB      58              0.0000000000
      6419        58  OSM       H15C          -34.2278576648       -2.7495199685       22.6176808145  MEMB      58              0.0000000000
      6420        58  OSM       C14           -31.7681468365       -3.6355874048       23.0919852179  MEMB      58              0.0000000000
      6421        58  OSM       H14A          -31.5693220840       -2.7912530252       22.4485816840  MEMB      58              0.0000000000
      6422        58  OSM       H14B          -30.9517524646       -4.3292546997       22.9551413767  MEMB      58              0.0000000000
      6423        58  OSM       H14C          -31.8966590607       -3.3906512646       24.1359636015  MEMB      58              0.0000000000
      6424        58  OSM       C13           -32.9447401054       -5.7758411035       23.1389983273  MEMB      58              0.0000000000
      6425        58  OSM       H13A          -33.6356600673       -6.4043082643       22.5967265453  MEMB      58              0.0000000000
      6426        58  OSM       H13B          -33.3235306229       -5.7184807027       24.1487643205  MEMB      58              0.0000000000
      6427        58  OSM       H13C          -31.9606681361       -6.2067242045       23.0279022252  MEMB      58              0.0000000000
      6428        58  OSM       C12           -32.8344016903       -4.6745881197       21.0126783356  MEMB      58              0.0000000000
      6429        58  OSM       H12A          -33.7371075218       -5.2062062113       20.7501815963  MEMB      58              0.0000000000
      6430        58  OSM       H12B          -32.0378096353       -5.3689194457       20.7896423344  MEMB      58              0.0000000000
      6431        58  OSM       C11           -32.8689828556       -3.4635986688       19.9946348139  MEMB      58              0.0000000000
      6432        58  OSM       H11A          -33.7874947593       -2.8836228508       20.2276259273  MEMB      58              0.0000000000
      6433        58  OSM       H11B          -32.8723902051       -3.7897948530       18.9326059054  MEMB      58              0.0000000000
      6434        58  OSM       P             -31.5145361850       -1.2416353574       19.7547113580  MEMB      58              0.0000000000
      6435        58  OSM       O13           -32.7582319403       -0.4751298879       19.9446210525  MEMB      58              0.0000000000
      6436        58  OSM       O14           -30.3151888741       -0.6286104065       20.3197790059  MEMB      58              0.0000000000
      6437        58  OSM       O11           -31.2023202616       -1.4742512896       18.1916629459  MEMB      58              0.0000000000
      6438        58  OSM       O12           -31.6268220659       -2.6999997957       20.3026274585  MEMB      58              0.0000000000
      6439        58  OSM       C1S           -30.1831405264       -2.3158678894       17.7292006914  MEMB      58              0.0000000000
      6440        58  OSM       H1S           -30.4281484318       -3.3782428284       17.9428631871  MEMB      58              0.0000000000
      6441        58  OSM       H1T           -29.2108782831       -2.0754497906       18.2100604240  MEMB      58              0.0000000000
      6442        58  OSM       NF            -29.6833249180       -3.5437609613       15.5506367252  MEMB      58              0.0000000000
      6443        58  OSM       HNF           -28.7764626259       -3.3433012012       15.1881099835  MEMB      58              0.0000000000
      6444        58  OSM       C2S           -30.0676490498       -2.2791269061       16.2040169731  MEMB      58              0.0000000000
      6445        58  OSM       H2S           -31.0416227836       -1.9976007253       15.7496613280  MEMB      58              0.0000000000
      6446        58  OSM       C3S           -29.1340676541       -1.1541233644       15.6940307328  MEMB      58              0.0000000000
      6447        58  OSM       H3S           -28.0784698270       -1.3686250015       15.9661023111  MEMB      58              0.0000000000
      6448        58  OSM       O3            -29.4250597896        0.0700617582       16.3497886069  MEMB      58              0.0000000000
      6449        58  OSM       HO3           -30.0874799371       -0.1452402347       17.0104284883  MEMB      58              0.0000000000
      6450        58  OSM       C4S           -29.2269868506       -1.0898955053       14.1973371910  MEMB      58              0.0000000000
      6451        58  OSM       H4S           -28.3900561946       -1.4562363566       13.5846860301  MEMB      58              0.0000000000
      6452        58  OSM       C5S           -30.2167720702       -0.4489805396       13.6196691974  MEMB      58              0.0000000000
      6453        58  OSM       H5S           -31.0359788452       -0.0344387723       14.2255205734  MEMB      58              0.0000000000
      6454        58  OSM       C6S           -30.3707044873       -0.2564306880       12.0931976025  MEMB      58              0.0000000000
      6455        58  OSM       H6S           -29.7038723926       -0.8855623590       11.4656229739  MEMB      58              0.0000000000
      6456        58  OSM       H6T           -30.1544816222        0.7699416300       11.7269616280  MEMB      58              0.0000000000
      6457        58  OSM       C7S           -31.8353871597       -0.6411828126       11.8161556983  MEMB      58              0.0000000000
      6458        58  OSM       H7S           -32.5351038414       -0.0482586955       12.4431792617  MEMB      58              0.0000000000
      6459        58  OSM       H7T           -31.9698936684       -1.7240734205       12.0249064998  MEMB      58              0.0000000000
      6460        58  OSM       C8S           -32.2165615809       -0.2709865952       10.3422186730  MEMB      58              0.0000000000
      6461        58  OSM       H8S           -31.4089356935       -0.6915125056        9.7056510580  MEMB      58              0.0000000000
      6462        58  OSM       H8T           -32.3011228491        0.8364016598       10.3128725067  MEMB      58              0.0000000000
      6463        58  OSM       C9S           -33.5519443546       -0.8892038066        9.8496139459  MEMB      58              0.0000000000
      6464        58  OSM       H9S           -33.5675008777       -0.6398053425        8.7670800733  MEMB      58              0.0000000000
      6465        58  OSM       H9T           -34.4110173321       -0.4015581733       10.3580589342  MEMB      58              0.0000000000
      6466        58  OSM       C10S          -33.5730661187       -2.4365127673        9.9368366143  MEMB      58              0.0000000000
      6467        58  OSM       H10S          -33.6089808281       -2.7936307754       10.9882625957  MEMB      58              0.0000000000
      6468        58  OSM       H10T          -32.6896582108       -2.9450948711        9.4949592425  MEMB      58              0.0000000000
      6469        58  OSM       C11S          -34.8497906652       -3.0540619935        9.2698727573  MEMB      58              0.0000000000
      6470        58  OSM       H11S          -35.8128967968       -2.7321547826        9.7205635685  MEMB      58              0.0000000000
      6471        58  OSM       H11T          -34.6197652161       -4.1401963497        9.3113661021  MEMB      58              0.0000000000
      6472        58  OSM       C12S          -34.9680790637       -2.7032955101        7.7629099410  MEMB      58              0.0000000000
      6473        58  OSM       H12S          -35.2730140950       -1.6489834352        7.5903946954  MEMB      58              0.0000000000
      6474        58  OSM       H12T          -35.8234375102       -3.3024191363        7.3837880574  MEMB      58              0.0000000000
      6475        58  OSM       C13S          -33.6764901788       -3.1365246027        6.9992649415  MEMB      58              0.0000000000
      6476        58  OSM       H13S          -33.4344050763       -4.2188976496        7.0639519424  MEMB      58              0.0000000000
      6477        58  OSM       H13T          -32.8216867381       -2.5418408336        7.3865412956  MEMB      58              0.0000000000
      6478        58  OSM       C14S          -33.8021439008       -2.7277721098        5.5402614824  MEMB      58              0.0000000000
      6479        58  OSM       H14S          -32.7664388604       -2.8859859452        5.1706611162  MEMB      58              0.0000000000
      6480        58  OSM       H14T          -34.0577633879       -1.6466914395        5.5558870682  MEMB      58              0.0000000000
      6481        58  OSM       C15S          -34.9503085516       -3.3939715522        4.7633263500  MEMB      58              0.0000000000
      6482        58  OSM       H15S          -35.2045350642       -2.8310783248        3.8398330746  MEMB      58              0.0000000000
      6483        58  OSM       H15T          -35.8860718576       -3.4343619098        5.3608519597  MEMB      58              0.0000000000
      6484        58  OSM       C16S          -34.6466668050       -4.8076001719        4.1887045526  MEMB      58              0.0000000000
      6485        58  OSM       H16S          -35.5289160748       -5.2844666736        3.7106295714  MEMB      58              0.0000000000
      6486        58  OSM       H16T          -34.6701117667       -5.4276513190        5.1102837650  MEMB      58              0.0000000000
      6487        58  OSM       C17S          -33.3006171800       -5.0467083600        3.4857058019  MEMB      58              0.0000000000
      6488        58  OSM       H17S          -33.3225264784       -6.0926698024        3.1117988474  MEMB      58              0.0000000000
      6489        58  OSM       H17T          -32.3862990617       -4.8642841503        4.0899117645  MEMB      58              0.0000000000
      6490        58  OSM       C18S          -32.9950726037       -4.2844162762        2.1673758961  MEMB      58              0.0000000000
      6491        58  OSM       H18S          -32.8438511212       -3.1886062503        2.2705912767  MEMB      58              0.0000000000
      6492        58  OSM       H18T          -33.7528928073       -4.5842771991        1.4123166933  MEMB      58              0.0000000000
      6493        58  OSM       H18U          -32.0329731533       -4.6172750118        1.7225263822  MEMB      58              0.0000000000
      6494        58  OSM       C1F           -30.3058953365       -4.7581910003       15.5118458707  MEMB      58              0.0000000000
      6495        58  OSM       OF            -31.3881274071       -4.9424992982       16.0389977991  MEMB      58              0.0000000000
      6496        58  OSM       C2F           -29.5779710759       -5.8908651636       14.7504399983  MEMB      58              0.0000000000
      6497        58  OSM       H2F           -29.3297151995       -6.6725896872       15.4998373672  MEMB      58              0.0000000000
      6498        58  OSM       H2G           -28.6337911996       -5.4852922080       14.3281177306  MEMB      58              0.0000000000
      6499        58  OSM       C3F           -30.5438609274       -6.2873854411       13.5957111500  MEMB      58              0.0000000000
      6500        58  OSM       H3F           -31.4953714233       -6.3405115588       14.1667854254  MEMB      58              0.0000000000
      6501        58  OSM       H3G           -30.2085584235       -7.2408745524       13.1344613400  MEMB      58              0.0000000000
      6502        58  OSM       C4F           -30.6873124881       -5.1981274777       12.5432142336  MEMB      58              0.0000000000
      6503        58  OSM       H4F           -29.7297063091       -5.2529406312       11.9825840857  MEMB      58              0.0000000000
      6504        58  OSM       H4G           -30.8384883514       -4.2413974975       13.0873968068  MEMB      58              0.0000000000
      6505        58  OSM       C5F           -31.8576331507       -5.4290245306       11.6575564536  MEMB      58              0.0000000000
      6506        58  OSM       H5F           -31.7198035045       -4.8485684854       10.7203287376  MEMB      58              0.0000000000
      6507        58  OSM       H5G           -32.8336228931       -5.1971113907       12.1350293370  MEMB      58              0.0000000000
      6508        58  OSM       C6F           -32.0096380464       -6.9548623360       11.2167175840  MEMB      58              0.0000000000
      6509        58  OSM       H6F           -32.3530516313       -7.5013659938       12.1209976141  MEMB      58              0.0000000000
      6510        58  OSM       H6G           -31.0704149794       -7.4278915528       10.8583537937  MEMB      58              0.0000000000
      6511        58  OSM       C7F           -33.1026655419       -7.1385508491       10.0793277146  MEMB      58              0.0000000000
      6512        58  OSM       H7F           -33.8594304259       -6.3422519690       10.2452668680  MEMB      58              0.0000000000
      6513        58  OSM       H7G           -33.4997293193       -8.1739092925       10.1478403461  MEMB      58              0.0000000000
      6514        58  OSM       C8F           -32.7018269266       -6.9020093938        8.6164409597  MEMB      58              0.0000000000
      6515        58  OSM       H8F           -32.5217913166       -5.8057815606        8.6303181048  MEMB      58              0.0000000000
      6516        58  OSM       H8G           -33.6174713384       -6.9870293951        7.9929915145  MEMB      58              0.0000000000
      6517        58  OSM       C9F           -31.5558077147       -7.6356581188        8.0591594919  MEMB      58              0.0000000000
      6518        58  OSM       H9F           -31.7315375396       -8.6374087001        7.6400952979  MEMB      58              0.0000000000
      6519        58  OSM       C10F          -30.3069726513       -7.1496618320        7.9248500330  MEMB      58              0.0000000000
      6520        58  OSM       H10F          -29.5880630928       -7.7539194657        7.3521001702  MEMB      58              0.0000000000
      6521        58  OSM       C11F          -29.8216530859       -5.7923501850        8.2691181166  MEMB      58              0.0000000000
      6522        58  OSM       H11F          -28.9491739345       -6.0346045472        8.9128680211  MEMB      58              0.0000000000
      6523        58  OSM       H11G          -30.5954281684       -5.3108662716        8.9045446914  MEMB      58              0.0000000000
      6524        58  OSM       C12F          -29.4949950649       -4.8027377496        7.1022844634  MEMB      58              0.0000000000
      6525        58  OSM       H12F          -30.4033049876       -4.6955361279        6.4715696093  MEMB      58              0.0000000000
      6526        58  OSM       H12G          -28.7028466578       -5.2736099788        6.4817198429  MEMB      58              0.0000000000
      6527        58  OSM       C13F          -29.0911763763       -3.4041178066        7.5905223740  MEMB      58              0.0000000000
      6528        58  OSM       H13F          -28.0925061686       -3.4049381894        8.0773264604  MEMB      58              0.0000000000
      6529        58  OSM       H13G          -29.7952319620       -2.9974254697        8.3476415143  MEMB      58              0.0000000000
      6530        58  OSM       C14F          -29.0684697085       -2.3818943120        6.3864526393  MEMB      58              0.0000000000
      6531        58  OSM       H14F          -28.7350033765       -1.3887672488        6.7563442123  MEMB      58              0.0000000000
      6532        58  OSM       H14G          -30.1093384678       -2.3406411544        6.0001739685  MEMB      58              0.0000000000
      6533        58  OSM       C15F          -28.2233173717       -2.8144097370        5.1795154696  MEMB      58              0.0000000000
      6534        58  OSM       H15F          -28.4334635007       -3.8646250896        4.8842058019  MEMB      58              0.0000000000
      6535        58  OSM       H15G          -27.1344053053       -2.7779064738        5.3969066839  MEMB      58              0.0000000000
      6536        58  OSM       C16F          -28.3846154039       -1.8720402295        3.9654203757  MEMB      58              0.0000000000
      6537        58  OSM       H16F          -27.6693370092       -1.0497773005        4.1812474441  MEMB      58              0.0000000000
      6538        58  OSM       H16G          -29.3905631324       -1.4025921164        3.9206061150  MEMB      58              0.0000000000
      6539        58  OSM       C17F          -28.0369208739       -2.5423187208        2.6214325376  MEMB      58              0.0000000000
      6540        58  OSM       H17F          -28.9561173710       -3.0851787686        2.3136959315  MEMB      58              0.0000000000
      6541        58  OSM       H17G          -27.1556803907       -3.2173407922        2.6670520175  MEMB      58              0.0000000000
      6542        58  OSM       C18F          -27.7046663800       -1.6189432658        1.4502061952  MEMB      58              0.0000000000
      6543        58  OSM       H18F          -27.1600123680       -0.7013858711        1.7596593600  MEMB      58              0.0000000000
      6544        58  OSM       H18G          -28.6609373923       -1.4127535856        0.9235630190  MEMB      58              0.0000000000
      6545        58  OSM       H18H          -27.0739829662       -2.1498110213        0.7053988653  MEMB      58              0.0000000000
      6546        59  SLPC      N              26.6156343356       17.9136474942       19.1134043626  MEMB      59              0.0000000000
      6547        59  SLPC      C13            25.1602174689       17.9805122760       18.7875050098  MEMB      59              0.0000000000
      6548        59  SLPC      H13A           24.9806232959       17.9345696142       17.7235335939  MEMB      59              0.0000000000
      6549        59  SLPC      H13B           24.5892355994       17.1604096963       19.1971528253  MEMB      59              0.0000000000
      6550        59  SLPC      H13C           24.7293272624       18.8601115582       19.2425199506  MEMB      59              0.0000000000
      6551        59  SLPC      C14            26.8066971520       17.7742493286       20.6115667733  MEMB      59              0.0000000000
      6552        59  SLPC      H14A           26.1245553939       18.4520649089       21.1031447111  MEMB      59              0.0000000000
      6553        59  SLPC      H14B           26.7545555135       16.7313298508       20.8872481848  MEMB      59              0.0000000000
      6554        59  SLPC      H14C           27.8184439037       17.9875583727       20.9234444937  MEMB      59              0.0000000000
      6555        59  SLPC      C15            27.3026135965       19.2035131899       18.6098255774  MEMB      59              0.0000000000
      6556        59  SLPC      H15A           27.1055699870       19.2393407723       17.5485574006  MEMB      59              0.0000000000
      6557        59  SLPC      H15B           26.9371436974       20.0637293541       19.1509908402  MEMB      59              0.0000000000
      6558        59  SLPC      H15C           28.3609352069       19.0962354853       18.7964994778  MEMB      59              0.0000000000
      6559        59  SLPC      C12            27.3211331676       16.7377522743       18.5184960164  MEMB      59              0.0000000000
      6560        59  SLPC      H12A           26.9686220530       15.8291415188       18.9838585591  MEMB      59              0.0000000000
      6561        59  SLPC      H12B           28.3534827069       16.9553895762       18.7493387952  MEMB      59              0.0000000000
      6562        59  SLPC      C11            27.3510750130       16.5360812237       16.9764694551  MEMB      59              0.0000000000
      6563        59  SLPC      H11A           26.3687428458       16.3199814608       16.5046163527  MEMB      59              0.0000000000
      6564        59  SLPC      H11B           27.9150255563       15.6032482049       16.7617527119  MEMB      59              0.0000000000
      6565        59  SLPC      P              28.1263480362       17.5827574246       14.8188476208  MEMB      59              0.0000000000
      6566        59  SLPC      O13            29.1270585241       18.6462488400       14.5955975302  MEMB      59              0.0000000000
      6567        59  SLPC      O14            28.5097756769       16.2379789610       14.4608461154  MEMB      59              0.0000000000
      6568        59  SLPC      O12            27.8133053373       17.7095804951       16.3806649147  MEMB      59              0.0000000000
      6569        59  SLPC      O11            26.8017051839       18.0368115341       14.1267766245  MEMB      59              0.0000000000
      6570        59  SLPC      C1             25.8177227184       18.8288715989       14.7989252849  MEMB      59              0.0000000000
      6571        59  SLPC      HA             26.1571998472       19.3623714490       15.7124098592  MEMB      59              0.0000000000
      6572        59  SLPC      HB             25.7009214421       19.6113087467       14.0188799568  MEMB      59              0.0000000000
      6573        59  SLPC      C2             24.5015604223       18.1187504043       14.9062627266  MEMB      59              0.0000000000
      6574        59  SLPC      HS             24.6595365135       17.3526558661       15.6952264794  MEMB      59              0.0000000000
      6575        59  SLPC      O21            24.2606383957       17.5372783628       13.6215254264  MEMB      59              0.0000000000
      6576        59  SLPC      C21            23.1816914712       16.6964273798       13.6046353520  MEMB      59              0.0000000000
      6577        59  SLPC      O22            22.5383168605       16.4141737596       14.5826232000  MEMB      59              0.0000000000
      6578        59  SLPC      C22            23.0840501289       16.0183203919       12.2691549327  MEMB      59              0.0000000000
      6579        59  SLPC      H2R            23.9949579742       16.2358537879       11.6714535740  MEMB      59              0.0000000000
      6580        59  SLPC      H2S            23.0990591064       14.9230458362       12.4548144085  MEMB      59              0.0000000000
      6581        59  SLPC      C3             23.4048736750       19.1529629578       15.2672368700  MEMB      59              0.0000000000
      6582        59  SLPC      HX             23.6768892960       19.4245998184       16.3096099468  MEMB      59              0.0000000000
      6583        59  SLPC      HY             22.4048045078       18.6697855233       15.2941084336  MEMB      59              0.0000000000
      6584        59  SLPC      O31            23.4467274753       20.3511898605       14.4498722379  MEMB      59              0.0000000000
      6585        59  SLPC      C31            22.3783757116       20.8039431844       13.7995690212  MEMB      59              0.0000000000
      6586        59  SLPC      O32            21.2636687866       20.3550019505       13.8347984760  MEMB      59              0.0000000000
      6587        59  SLPC      C32            22.7587596838       22.0983836594       13.0748508555  MEMB      59              0.0000000000
      6588        59  SLPC      H2X            23.6382800517       22.5787181046       13.5544792402  MEMB      59              0.0000000000
      6589        59  SLPC      H2Y            21.9441720502       22.8477146572       13.1711366138  MEMB      59              0.0000000000
      6590        59  SLPC      C23            21.7168500709       16.5253007180       11.5284940519  MEMB      59              0.0000000000
      6591        59  SLPC      H3R            20.8042739432       16.3000961198       12.1207852608  MEMB      59              0.0000000000
      6592        59  SLPC      H3S            21.4625702617       15.7811257756       10.7437226614  MEMB      59              0.0000000000
      6593        59  SLPC      C24            21.7168361926       17.9714681804       10.9900969241  MEMB      59              0.0000000000
      6594        59  SLPC      H4R            22.1606947088       18.5630268299       11.8191737996  MEMB      59              0.0000000000
      6595        59  SLPC      H4S            20.7129144844       18.3738512601       10.7360289186  MEMB      59              0.0000000000
      6596        59  SLPC      C25            22.7709133837       18.2040877485        9.8325431247  MEMB      59              0.0000000000
      6597        59  SLPC      H5R            23.6833854269       17.6636594359       10.1636826917  MEMB      59              0.0000000000
      6598        59  SLPC      H5S            23.0198732824       19.2777833566        9.9722489240  MEMB      59              0.0000000000
      6599        59  SLPC      C26            22.3944463693       17.8400858997        8.3587720809  MEMB      59              0.0000000000
      6600        59  SLPC      H6R            22.0394315865       16.7874642164        8.3753011240  MEMB      59              0.0000000000
      6601        59  SLPC      H6S            23.3777681222       17.9387602439        7.8511672134  MEMB      59              0.0000000000
      6602        59  SLPC      C27            21.4553768484       18.7994874461        7.6587975470  MEMB      59              0.0000000000
      6603        59  SLPC      H7R            20.5203604050       18.9340104617        8.2435786331  MEMB      59              0.0000000000
      6604        59  SLPC      H7S            20.9541811488       18.2715099383        6.8195341898  MEMB      59              0.0000000000
      6605        59  SLPC      C28            22.1560610748       20.1046129614        7.1696010082  MEMB      59              0.0000000000
      6606        59  SLPC      H8R            22.5716558729       20.5077191437        8.1178145601  MEMB      59              0.0000000000
      6607        59  SLPC      H8S            21.4373308544       20.8521387336        6.7709126211  MEMB      59              0.0000000000
      6608        59  SLPC      C29            23.2690055345       19.8900198133        6.2118208276  MEMB      59              0.0000000000
      6609        59  SLPC      H9R            24.1698556267       19.6403411044        6.7915882532  MEMB      59              0.0000000000
      6610        59  SLPC      C210           23.2139637612       19.6566501514        4.8915114841  MEMB      59              0.0000000000
      6611        59  SLPC      H10R           24.1543864548       19.3741382441        4.3957372091  MEMB      59              0.0000000000
      6612        59  SLPC      C211           22.0029724575       19.5387383074        3.9925878739  MEMB      59              0.0000000000
      6613        59  SLPC      H11R           21.1433312175       19.9415665180        4.5697077781  MEMB      59              0.0000000000
      6614        59  SLPC      H11S           21.8144401423       18.4701943668        3.7538608945  MEMB      59              0.0000000000
      6615        59  SLPC      C212           21.9729244828       20.3281854425        2.7343978842  MEMB      59              0.0000000000
      6616        59  SLPC      H12R           22.4443562313       21.3220308761        2.7295891114  MEMB      59              0.0000000000
      6617        59  SLPC      C213           21.3630480319       19.8792609547        1.6147999455  MEMB      59              0.0000000000
      6618        59  SLPC      H13R           21.3952725051       20.4825059500        0.6955307397  MEMB      59              0.0000000000
      6619        59  SLPC      C214           20.5969574552       18.6087022944        1.3968957744  MEMB      59              0.0000000000
      6620        59  SLPC      H14R           19.4873437917       18.6638159063        1.3905327392  MEMB      59              0.0000000000
      6621        59  SLPC      H14S           20.7189849701       17.7775058387        2.1239043690  MEMB      59              0.0000000000
      6622        59  SLPC      C215           20.9758817310       18.0612085088       -0.0334899087  MEMB      59              0.0000000000
      6623        59  SLPC      H15R           20.7303913225       18.8274914602       -0.7995620172  MEMB      59              0.0000000000
      6624        59  SLPC      H15S           20.2018014473       17.2814108841       -0.1979169760  MEMB      59              0.0000000000
      6625        59  SLPC      C216           22.4386149017       17.6647264093       -0.2137104717  MEMB      59              0.0000000000
      6626        59  SLPC      H16R           22.6811570382       16.9658561177        0.6151904407  MEMB      59              0.0000000000
      6627        59  SLPC      H16S           23.0311004230       18.5972808876       -0.0969856227  MEMB      59              0.0000000000
      6628        59  SLPC      C217           22.7850620663       16.9956211641       -1.5360346523  MEMB      59              0.0000000000
      6629        59  SLPC      H17R           22.0610745026       16.1773956514       -1.7377047437  MEMB      59              0.0000000000
      6630        59  SLPC      H17S           23.7902633935       16.5225143195       -1.5281773264  MEMB      59              0.0000000000
      6631        59  SLPC      C218           22.8099308719       17.8899562974       -2.7388968470  MEMB      59              0.0000000000
      6632        59  SLPC      H18R           23.7270140633       18.5142336908       -2.7985411177  MEMB      59              0.0000000000
      6633        59  SLPC      H18S           22.0375403112       18.6838966230       -2.8248738713  MEMB      59              0.0000000000
      6634        59  SLPC      H18T           22.6502494745       17.3795595700       -3.7127116974  MEMB      59              0.0000000000
      6635        59  SLPC      C33            22.9783296838       21.8586196089       11.6137027273  MEMB      59              0.0000000000
      6636        59  SLPC      H3X            21.9971773117       21.6370993268       11.1419075680  MEMB      59              0.0000000000
      6637        59  SLPC      H3Y            23.5896073945       20.9334239755       11.5453419605  MEMB      59              0.0000000000
      6638        59  SLPC      C34            23.6175881641       23.0120945477       10.8142774701  MEMB      59              0.0000000000
      6639        59  SLPC      H4X            23.1550807819       23.9825416945       11.0947049618  MEMB      59              0.0000000000
      6640        59  SLPC      H4Y            23.4932159184       22.7985856579        9.7311032533  MEMB      59              0.0000000000
      6641        59  SLPC      C35            25.1319312249       22.9326829057       10.9677243756  MEMB      59              0.0000000000
      6642        59  SLPC      H5X            25.4343853298       22.8235750880       12.0311802057  MEMB      59              0.0000000000
      6643        59  SLPC      H5Y            25.4587362788       23.9692055029       10.7372021304  MEMB      59              0.0000000000
      6644        59  SLPC      C36            25.9119374787       22.0621709554        9.9203233554  MEMB      59              0.0000000000
      6645        59  SLPC      H6X            25.9286066355       22.5417188424        8.9182867747  MEMB      59              0.0000000000
      6646        59  SLPC      H6Y            25.2727804130       21.1535250963        9.9076034231  MEMB      59              0.0000000000
      6647        59  SLPC      C37            27.3684488489       21.7934720845       10.3397641579  MEMB      59              0.0000000000
      6648        59  SLPC      H7X            27.8592871540       22.6204913681       10.8960357547  MEMB      59              0.0000000000
      6649        59  SLPC      H7Y            27.9282610949       21.5196672367        9.4200021869  MEMB      59              0.0000000000
      6650        59  SLPC      C38            27.4746249660       20.4181290991       11.0826901312  MEMB      59              0.0000000000
      6651        59  SLPC      H8X            26.5528933141       20.3924965854       11.7024276490  MEMB      59              0.0000000000
      6652        59  SLPC      H8Y            28.2937324845       20.4420060416       11.8328996951  MEMB      59              0.0000000000
      6653        59  SLPC      C39            27.5631137176       19.0276647940       10.3465375647  MEMB      59              0.0000000000
      6654        59  SLPC      H9X            27.4430762262       18.1711483717       11.0438833793  MEMB      59              0.0000000000
      6655        59  SLPC      H9Y            28.6272643593       19.0240944712       10.0273325618  MEMB      59              0.0000000000
      6656        59  SLPC      C310           26.6121944054       18.8526855681        9.1470907354  MEMB      59              0.0000000000
      6657        59  SLPC      H10X           26.8098448949       19.7953683641        8.5933724088  MEMB      59              0.0000000000
      6658        59  SLPC      H10Y           25.5626218098       19.0048720058        9.4780859684  MEMB      59              0.0000000000
      6659        59  SLPC      C311           26.8934635361       17.6533382671        8.2645767998  MEMB      59              0.0000000000
      6660        59  SLPC      H11X           26.6215796523       16.7653481719        8.8743911635  MEMB      59              0.0000000000
      6661        59  SLPC      H11Y           27.9965358345       17.6712916563        8.1333135546  MEMB      59              0.0000000000
      6662        59  SLPC      C312           26.1372127092       17.4853857657        6.8778337310  MEMB      59              0.0000000000
      6663        59  SLPC      H12X           26.3254905801       18.3302482037        6.1813570450  MEMB      59              0.0000000000
      6664        59  SLPC      H12Y           25.0472733763       17.3822900492        7.0668432645  MEMB      59              0.0000000000
      6665        59  SLPC      C313           26.3237420344       16.1646951646        6.0862758484  MEMB      59              0.0000000000
      6666        59  SLPC      H13X           26.3085594487       15.4499517925        6.9367061785  MEMB      59              0.0000000000
      6667        59  SLPC      H13Y           27.3067216076       16.0739963192        5.5765244292  MEMB      59              0.0000000000
      6668        59  SLPC      C314           25.1691534414       15.7895420541        5.1885250225  MEMB      59              0.0000000000
      6669        59  SLPC      H14X           24.7806514541       16.7467161324        4.7796176606  MEMB      59              0.0000000000
      6670        59  SLPC      H14Y           24.3862914770       15.2732239930        5.7842297599  MEMB      59              0.0000000000
      6671        59  SLPC      C315           25.6046419601       14.7865643052        4.0686791714  MEMB      59              0.0000000000
      6672        59  SLPC      H15X           26.1922632539       13.9541873301        4.5115912833  MEMB      59              0.0000000000
      6673        59  SLPC      H15Y           26.3035806302       15.3938303575        3.4546485993  MEMB      59              0.0000000000
      6674        59  SLPC      C316           24.5375699944       14.0923792423        3.2074380279  MEMB      59              0.0000000000
      6675        59  SLPC      H16X           23.8301874759       13.4735311683        3.7998551324  MEMB      59              0.0000000000
      6676        59  SLPC      H16Y           25.1746130875       13.4097019301        2.6054004169  MEMB      59              0.0000000000
      6677        59  SLPC      C317           23.8580369077       15.0307498611        2.2121639802  MEMB      59              0.0000000000
      6678        59  SLPC      H17X           24.6124321520       15.3705319545        1.4707082515  MEMB      59              0.0000000000
      6679        59  SLPC      H17Y           23.3561026548       15.8510069650        2.7685463426  MEMB      59              0.0000000000
      6680        59  SLPC      C318           22.7213321330       14.2367957248        1.5226671841  MEMB      59              0.0000000000
      6681        59  SLPC      H18X           22.9724964176       13.6414797897        0.6188769978  MEMB      59              0.0000000000
      6682        59  SLPC      H18Y           21.9122530741       14.9467567360        1.2475918955  MEMB      59              0.0000000000
      6683        59  SLPC      H18Z           22.3158821838       13.5857342365        2.3264402434  MEMB      59              0.0000000000
      6684        60  SAPC      N              10.7762241192       29.5365008508       18.3567004860  MEMB      60              0.0000000000
      6685        60  SAPC      C12             9.7060810134       30.5131552269       18.9334404376  MEMB      60              0.0000000000
      6686        60  SAPC      H12A            8.8717869786       30.3236197880       18.2743275907  MEMB      60              0.0000000000
      6687        60  SAPC      H12B           10.0908172144       31.5134672634       18.8001966604  MEMB      60              0.0000000000
      6688        60  SAPC      C13            10.1648800530       28.1568416081       18.4645795282  MEMB      60              0.0000000000
      6689        60  SAPC      H13A            9.7784614949       28.0734086686       19.4696266103  MEMB      60              0.0000000000
      6690        60  SAPC      H13B            9.3376179149       27.9766271502       17.7940870563  MEMB      60              0.0000000000
      6691        60  SAPC      H13C           10.9170496665       27.4182223412       18.2298830690  MEMB      60              0.0000000000
      6692        60  SAPC      C14            11.0664313178       29.9608413554       16.9032857561  MEMB      60              0.0000000000
      6693        60  SAPC      H14A           10.1963850073       30.0938013844       16.2773939202  MEMB      60              0.0000000000
      6694        60  SAPC      H14B           11.6393616389       30.8760461344       16.9267621012  MEMB      60              0.0000000000
      6695        60  SAPC      H14C           11.6833756851       29.1667676480       16.5092976614  MEMB      60              0.0000000000
      6696        60  SAPC      C15            12.0358963084       29.6828605603       19.2293912056  MEMB      60              0.0000000000
      6697        60  SAPC      H15A           12.9036836116       29.1294766763       18.9021117805  MEMB      60              0.0000000000
      6698        60  SAPC      H15B           12.1854012243       30.7519180126       19.1952676726  MEMB      60              0.0000000000
      6699        60  SAPC      H15C           11.8167837047       29.4370555328       20.2579676499  MEMB      60              0.0000000000
      6700        60  SAPC      C11             9.2859822712       30.2748825705       20.3850710126  MEMB      60              0.0000000000
      6701        60  SAPC      H11A            9.0431588492       29.2217458316       20.6424833720  MEMB      60              0.0000000000
      6702        60  SAPC      H11B            8.3734904470       30.8553297081       20.6395523450  MEMB      60              0.0000000000
      6703        60  SAPC      P              10.6238453671       32.2673255774       21.5980068859  MEMB      60              0.0000000000
      6704        60  SAPC      O13            10.2247606693       32.5598783440       22.9859213170  MEMB      60              0.0000000000
      6705        60  SAPC      O14            12.0242317900       32.5092753183       21.3114891606  MEMB      60              0.0000000000
      6706        60  SAPC      O12            10.3015004336       30.7736966705       21.2670094605  MEMB      60              0.0000000000
      6707        60  SAPC      O11             9.6398885598       33.0569941154       20.5651047110  MEMB      60              0.0000000000
      6708        60  SAPC      C1             10.2247717685       33.9177231242       19.5364109170  MEMB      60              0.0000000000
      6709        60  SAPC      HA             10.6309021317       34.8186491538       20.0440639813  MEMB      60              0.0000000000
      6710        60  SAPC      HB             10.9736635667       33.4220081238       18.8823859105  MEMB      60              0.0000000000
      6711        60  SAPC      C2              9.1474513250       34.2715799310       18.5431825575  MEMB      60              0.0000000000
      6712        60  SAPC      HS              8.3526246134       34.7671725010       19.1406435989  MEMB      60              0.0000000000
      6713        60  SAPC      O21             8.6385055231       33.1050741004       17.8500137927  MEMB      60              0.0000000000
      6714        60  SAPC      C21             7.4772301209       33.1272413045       17.2085326212  MEMB      60              0.0000000000
      6715        60  SAPC      O22             6.4698774706       33.7493518529       17.5705000460  MEMB      60              0.0000000000
      6716        60  SAPC      C22             7.6085791834       31.9600521677       16.1401148528  MEMB      60              0.0000000000
      6717        60  SAPC      H2R             8.4118421959       32.1752024437       15.4033653408  MEMB      60              0.0000000000
      6718        60  SAPC      H2S             7.6929401948       31.0382237533       16.7544734204  MEMB      60              0.0000000000
      6719        60  SAPC      C3              9.6051618280       35.3510200294       17.4832362282  MEMB      60              0.0000000000
      6720        60  SAPC      HX              9.8617130374       36.2745565967       18.0450034969  MEMB      60              0.0000000000
      6721        60  SAPC      HY              8.6809893168       35.4716627209       16.8785284688  MEMB      60              0.0000000000
      6722        60  SAPC      O31            10.7070737749       34.9650932621       16.7088586331  MEMB      60              0.0000000000
      6723        60  SAPC      C31            10.5244110892       34.5452966553       15.4270801040  MEMB      60              0.0000000000
      6724        60  SAPC      O32             9.5006181378       34.6394126245       14.7410336843  MEMB      60              0.0000000000
      6725        60  SAPC      C32            11.9186770484       34.4100700920       14.8037532421  MEMB      60              0.0000000000
      6726        60  SAPC      H2X            12.6839112877       34.4869034391       15.6055223610  MEMB      60              0.0000000000
      6727        60  SAPC      H2Y            11.9629596718       35.2683252983       14.0996522662  MEMB      60              0.0000000000
      6728        60  SAPC      C23             6.2775012043       31.7609990019       15.4085117918  MEMB      60              0.0000000000
      6729        60  SAPC      H3R             6.1163191292       32.5368442929       14.6297912618  MEMB      60              0.0000000000
      6730        60  SAPC      H3S             5.3911753557       31.8592728388       16.0711498655  MEMB      60              0.0000000000
      6731        60  SAPC      C24             6.0921333053       30.4107973264       14.6379612872  MEMB      60              0.0000000000
      6732        60  SAPC      H4R             6.9075572999       30.3724850908       13.8843453140  MEMB      60              0.0000000000
      6733        60  SAPC      H4S             5.0874931105       30.3989058881       14.1637486703  MEMB      60              0.0000000000
      6734        60  SAPC      C25             6.1870286688       29.0987769377       15.4415368488  MEMB      60              0.0000000000
      6735        60  SAPC      H5R             5.7447819380       29.0655527159       16.4481717633  MEMB      60              0.0000000000
      6736        60  SAPC      C26             6.8210984847       27.9633206430       14.9976941299  MEMB      60              0.0000000000
      6737        60  SAPC      H6R             6.9324804115       27.0658855967       15.6239564800  MEMB      60              0.0000000000
      6738        60  SAPC      C27             7.5175854931       27.8254318669       13.6324501402  MEMB      60              0.0000000000
      6739        60  SAPC      H7R             6.8577361800       28.2631822854       12.8531590938  MEMB      60              0.0000000000
      6740        60  SAPC      H7S             7.4964526759       26.8080730426       13.1865186889  MEMB      60              0.0000000000
      6741        60  SAPC      C28             8.9286072127       28.3834814033       13.6666275112  MEMB      60              0.0000000000
      6742        60  SAPC      H8R             9.6157343464       28.3268070935       14.5237413416  MEMB      60              0.0000000000
      6743        60  SAPC      C29             9.4990123562       28.9887761324       12.6126955323  MEMB      60              0.0000000000
      6744        60  SAPC      H9R            10.5270944759       29.3683438961       12.7074338814  MEMB      60              0.0000000000
      6745        60  SAPC      C210            8.9843561277       29.2394590837       11.1839951938  MEMB      60              0.0000000000
      6746        60  SAPC      H10R            8.3307047259       28.3753878752       10.9381459135  MEMB      60              0.0000000000
      6747        60  SAPC      H10S            9.8765706218       29.0487392757       10.5500394387  MEMB      60              0.0000000000
      6748        60  SAPC      C211            8.3468643620       30.5970022449       11.0103365687  MEMB      60              0.0000000000
      6749        60  SAPC      H11R            7.6194639068       30.8524090272       11.7949738842  MEMB      60              0.0000000000
      6750        60  SAPC      C212            8.4021557792       31.5515898504       10.0726332088  MEMB      60              0.0000000000
      6751        60  SAPC      H12R            7.5689276524       32.2650994390        9.9911785028  MEMB      60              0.0000000000
      6752        60  SAPC      C213            9.2583793665       31.3538355193        8.8150520266  MEMB      60              0.0000000000
      6753        60  SAPC      H13R            8.9631484246       32.2062061172        8.1664965765  MEMB      60              0.0000000000
      6754        60  SAPC      H13S            8.9649651681       30.4443312742        8.2484556834  MEMB      60              0.0000000000
      6755        60  SAPC      C214           10.7773343559       31.3243392536        8.9584455778  MEMB      60              0.0000000000
      6756        60  SAPC      H14R           11.1202656132       32.0358950373        9.7240078712  MEMB      60              0.0000000000
      6757        60  SAPC      C215           11.6413224486       30.6777277523        8.1428198502  MEMB      60              0.0000000000
      6758        60  SAPC      H15R           12.6855965394       30.7504585165        8.4807573118  MEMB      60              0.0000000000
      6759        60  SAPC      C216           11.2602588794       29.7844587501        6.9499270780  MEMB      60              0.0000000000
      6760        60  SAPC      H16R           10.2531014877       29.9368474837        6.5063809590  MEMB      60              0.0000000000
      6761        60  SAPC      H16S           11.3017547843       28.7051109537        7.2099399886  MEMB      60              0.0000000000
      6762        60  SAPC      C217           12.2066191499       30.0689447856        5.7598133544  MEMB      60              0.0000000000
      6763        60  SAPC      H17R           12.0736990545       29.3106274993        4.9588087318  MEMB      60              0.0000000000
      6764        60  SAPC      H17S           13.2906365575       30.1841952668        5.9741609680  MEMB      60              0.0000000000
      6765        60  SAPC      C218           11.9432893356       31.3786583633        5.0201567574  MEMB      60              0.0000000000
      6766        60  SAPC      H18R           11.8926551217       32.2440947178        5.7149780371  MEMB      60              0.0000000000
      6767        60  SAPC      H18S           10.9243955289       31.3700783338        4.5773207954  MEMB      60              0.0000000000
      6768        60  SAPC      C219           13.0076110105       31.6896119448        3.9803398877  MEMB      60              0.0000000000
      6769        60  SAPC      H19R           12.8883396804       30.8582716067        3.2530367121  MEMB      60              0.0000000000
      6770        60  SAPC      H19S           14.0218894578       31.4979135839        4.3912057384  MEMB      60              0.0000000000
      6771        60  SAPC      C220           12.8724045176       33.1372158594        3.3602447837  MEMB      60              0.0000000000
      6772        60  SAPC      H20R           12.9798626689       33.9122031938        4.1490219660  MEMB      60              0.0000000000
      6773        60  SAPC      H20S           11.9122623450       33.1835646218        2.8031989081  MEMB      60              0.0000000000
      6774        60  SAPC      H20T           13.6345581169       33.1373039635        2.5518864119  MEMB      60              0.0000000000
      6775        60  SAPC      C33            12.0554634882       33.2184129072       13.9280403616  MEMB      60              0.0000000000
      6776        60  SAPC      H3X            11.2455760052       33.1165043813       13.1743703789  MEMB      60              0.0000000000
      6777        60  SAPC      H3Y            11.8518185849       32.2533790012       14.4394692202  MEMB      60              0.0000000000
      6778        60  SAPC      C34            13.4340656912       33.1381045145       13.2677865772  MEMB      60              0.0000000000
      6779        60  SAPC      H4X            13.4802054756       32.1195854864       12.8264124998  MEMB      60              0.0000000000
      6780        60  SAPC      H4Y            14.1093647354       33.1788655172       14.1490533514  MEMB      60              0.0000000000
      6781        60  SAPC      C35            13.8142111008       34.2326590151       12.1739824623  MEMB      60              0.0000000000
      6782        60  SAPC      H5X            14.7555510529       33.9369619349       11.6633325811  MEMB      60              0.0000000000
      6783        60  SAPC      H5Y            14.0728615089       35.1817802145       12.6903062149  MEMB      60              0.0000000000
      6784        60  SAPC      C36            12.7035458189       34.4647640173       11.1068264263  MEMB      60              0.0000000000
      6785        60  SAPC      H6X            11.7580646431       34.9128889122       11.4804178619  MEMB      60              0.0000000000
      6786        60  SAPC      H6Y            12.3784014000       33.4941734160       10.6749047782  MEMB      60              0.0000000000
      6787        60  SAPC      C37            13.1425551065       35.3263411787        9.8893242593  MEMB      60              0.0000000000
      6788        60  SAPC      H7X            14.0323099683       34.8381832707        9.4372641096  MEMB      60              0.0000000000
      6789        60  SAPC      H7Y            13.5135729339       36.3016022618       10.2708117831  MEMB      60              0.0000000000
      6790        60  SAPC      C38            12.1564599665       35.5867582440        8.8122986844  MEMB      60              0.0000000000
      6791        60  SAPC      H8X            12.5285729619       36.5035350214        8.3069533896  MEMB      60              0.0000000000
      6792        60  SAPC      H8Y            11.1934714985       35.8140991276        9.3175613937  MEMB      60              0.0000000000
      6793        60  SAPC      C39            11.8310321701       34.5444670441        7.7269153783  MEMB      60              0.0000000000
      6794        60  SAPC      H9X            11.1146815410       33.8450093922        8.2084978782  MEMB      60              0.0000000000
      6795        60  SAPC      H9Y            12.7140806599       34.0128676265        7.3122490822  MEMB      60              0.0000000000
      6796        60  SAPC      C310           11.1280020455       35.2346272730        6.5077910484  MEMB      60              0.0000000000
      6797        60  SAPC      H10X           11.5663943645       34.7144268728        5.6294265318  MEMB      60              0.0000000000
      6798        60  SAPC      H10Y           11.5883498741       36.2313267652        6.6780580337  MEMB      60              0.0000000000
      6799        60  SAPC      C311            9.5957204740       35.2409743165        6.6855101472  MEMB      60              0.0000000000
      6800        60  SAPC      H11X            9.2696663079       35.6557333511        7.6632544126  MEMB      60              0.0000000000
      6801        60  SAPC      H11Y            9.2525197874       34.1899273036        6.7942975322  MEMB      60              0.0000000000
      6802        60  SAPC      C312            8.9332524649       35.9518559421        5.4987832107  MEMB      60              0.0000000000
      6803        60  SAPC      H12X            9.6455382656       36.6876652008        5.0680223861  MEMB      60              0.0000000000
      6804        60  SAPC      H12Y            8.1250494388       36.5862796245        5.9214362723  MEMB      60              0.0000000000
      6805        60  SAPC      C313            8.4395123324       35.1908695317        4.2713414397  MEMB      60              0.0000000000
      6806        60  SAPC      H13X            8.1263306844       36.0072262579        3.5859213953  MEMB      60              0.0000000000
      6807        60  SAPC      H13Y            7.5652277929       34.5284157415        4.4477002097  MEMB      60              0.0000000000
      6808        60  SAPC      C314            9.4932649122       34.4069678434        3.5438640765  MEMB      60              0.0000000000
      6809        60  SAPC      H14X            9.8807291647       33.6451723429        4.2536954561  MEMB      60              0.0000000000
      6810        60  SAPC      H14Y           10.3670896755       35.0343556627        3.2661321255  MEMB      60              0.0000000000
      6811        60  SAPC      C315            9.1256693101       33.7524323518        2.2289876669  MEMB      60              0.0000000000
      6812        60  SAPC      H15X            9.9649237426       33.1945774435        1.7612577960  MEMB      60              0.0000000000
      6813        60  SAPC      H15Y            8.8366627271       34.5847187826        1.5521585802  MEMB      60              0.0000000000
      6814        60  SAPC      C316            7.9808953647       32.8119970178        2.3535092267  MEMB      60              0.0000000000
      6815        60  SAPC      H16X            7.0924775656       33.3398132760        2.7614855669  MEMB      60              0.0000000000
      6816        60  SAPC      H16Y            8.2353639987       32.0587192877        3.1294847493  MEMB      60              0.0000000000
      6817        60  SAPC      C317            7.5466184988       32.0429134675        1.0680667237  MEMB      60              0.0000000000
      6818        60  SAPC      H17X            8.2751738889       31.2209085444        0.9012257453  MEMB      60              0.0000000000
      6819        60  SAPC      H17Y            7.4804691065       32.7634247213        0.2249733565  MEMB      60              0.0000000000
      6820        60  SAPC      C318            6.1592583646       31.3960006020        1.1872793438  MEMB      60              0.0000000000
      6821        60  SAPC      H18X            5.3821649000       32.1449724108        0.9236730661  MEMB      60              0.0000000000
      6822        60  SAPC      H18Y            6.0681602438       30.9195675140        2.1867960917  MEMB      60              0.0000000000
      6823        60  SAPC      H18Z            5.9882274251       30.5544014921        0.4824533894  MEMB      60              0.0000000000
      6824        61  SAPE      N              31.9546459459      -13.1933138043       22.1132956718  MEMB      61              0.0000000000
      6825        61  SAPE      HN1            31.0112837040      -13.5306458437       22.3923561445  MEMB      61              0.0000000000
      6826        61  SAPE      HN2            32.0683161188      -13.5101745034       21.1292842992  MEMB      61              0.0000000000
      6827        61  SAPE      HN3            32.7816310758      -13.5333225139       22.6444170015  MEMB      61              0.0000000000
      6828        61  SAPE      C12            32.1154998649      -11.6701756217       22.0848768760  MEMB      61              0.0000000000
      6829        61  SAPE      H12A           33.1949903755      -11.5221529215       21.8678276544  MEMB      61              0.0000000000
      6830        61  SAPE      H12B           31.9703241557      -11.3449320342       23.1372369974  MEMB      61              0.0000000000
      6831        61  SAPE      C11            31.0502088278      -11.0760176790       21.1829463922  MEMB      61              0.0000000000
      6832        61  SAPE      H11A           31.2848168360       -9.9911825412       21.2320656188  MEMB      61              0.0000000000
      6833        61  SAPE      H11B           30.0459856020      -11.1966436824       21.6426267124  MEMB      61              0.0000000000
      6834        61  SAPE      P              29.9023350863      -11.1163029713       18.8635915209  MEMB      61              0.0000000000
      6835        61  SAPE      O13            30.2962962456      -11.5674405865       17.4714611063  MEMB      61              0.0000000000
      6836        61  SAPE      O14            28.6416832976      -11.6355404288       19.5349239814  MEMB      61              0.0000000000
      6837        61  SAPE      O12            31.1129538785      -11.5633998895       19.8086460684  MEMB      61              0.0000000000
      6838        61  SAPE      O11            29.9415112626       -9.5444578579       18.9402583884  MEMB      61              0.0000000000
      6839        61  SAPE      C1             30.4660320263       -8.6555397283       18.0209194459  MEMB      61              0.0000000000
      6840        61  SAPE      HA             30.8529884299       -7.7614636626       18.5549735259  MEMB      61              0.0000000000
      6841        61  SAPE      HB             31.3645262283       -9.0087994427       17.4711587327  MEMB      61              0.0000000000
      6842        61  SAPE      C2             29.3892483013       -8.2474716403       16.9625979144  MEMB      61              0.0000000000
      6843        61  SAPE      HS             28.5605059817       -7.7193561134       17.4808654143  MEMB      61              0.0000000000
      6844        61  SAPE      O21            28.8179928393       -9.3555052849       16.3529902172  MEMB      61              0.0000000000
      6845        61  SAPE      C21            27.5672779916       -9.1912457241       15.7983050466  MEMB      61              0.0000000000
      6846        61  SAPE      O22            27.0100918120       -8.0911755690       15.5923875591  MEMB      61              0.0000000000
      6847        61  SAPE      C22            27.1366383844      -10.5167917268       15.3783874291  MEMB      61              0.0000000000
      6848        61  SAPE      H2R            27.9365681157      -11.2856838063       15.4352930498  MEMB      61              0.0000000000
      6849        61  SAPE      H2S            26.1659162432      -10.7796477675       15.8505382734  MEMB      61              0.0000000000
      6850        61  SAPE      C3             30.0250258404       -7.3537944449       15.8313687697  MEMB      61              0.0000000000
      6851        61  SAPE      HX             30.6096452888       -6.5410090709       16.3129503968  MEMB      61              0.0000000000
      6852        61  SAPE      HY             29.3061230211       -6.9688759570       15.0768241999  MEMB      61              0.0000000000
      6853        61  SAPE      O31            30.8349082577       -8.2214640035       15.0269474936  MEMB      61              0.0000000000
      6854        61  SAPE      C31            32.0741232980       -7.8277785277       14.9153361584  MEMB      61              0.0000000000
      6855        61  SAPE      O32            32.4891830199       -6.7007547487       15.0078726358  MEMB      61              0.0000000000
      6856        61  SAPE      C32            32.9293741639       -9.0303920040       14.6433835411  MEMB      61              0.0000000000
      6857        61  SAPE      H2X            33.6774679578       -9.0599690750       15.4642376869  MEMB      61              0.0000000000
      6858        61  SAPE      H2Y            33.4277164108       -8.8127708399       13.6745608407  MEMB      61              0.0000000000
      6859        61  SAPE      C23            26.6436677611      -10.4888871530       13.8852519121  MEMB      61              0.0000000000
      6860        61  SAPE      H3R            25.9590303993       -9.6376338880       13.6828651279  MEMB      61              0.0000000000
      6861        61  SAPE      H3S            25.8984590012      -11.2977780275       13.7281531348  MEMB      61              0.0000000000
      6862        61  SAPE      C24            27.7105687945      -10.4319549039       12.8112969530  MEMB      61              0.0000000000
      6863        61  SAPE      H4R            28.1934927347      -11.4291195844       12.7290285074  MEMB      61              0.0000000000
      6864        61  SAPE      H4S            28.4932837307       -9.7218175122       13.1539093325  MEMB      61              0.0000000000
      6865        61  SAPE      C25            27.1077792210      -10.1167841763       11.4822278306  MEMB      61              0.0000000000
      6866        61  SAPE      H5R            26.0862577926      -10.5130537605       11.3849438963  MEMB      61              0.0000000000
      6867        61  SAPE      C26            27.5868894604       -9.2873060928       10.5275968701  MEMB      61              0.0000000000
      6868        61  SAPE      H6R            26.9792350468       -9.2552896550        9.6112285203  MEMB      61              0.0000000000
      6869        61  SAPE      C27            28.8483831723       -8.4745949986       10.4916722537  MEMB      61              0.0000000000
      6870        61  SAPE      H7R            28.7287250724       -7.8422479876       11.3972885726  MEMB      61              0.0000000000
      6871        61  SAPE      H7S            28.9505802394       -7.8759923692        9.5613223170  MEMB      61              0.0000000000
      6872        61  SAPE      C28            30.0732399251       -9.3355571167       10.7376840218  MEMB      61              0.0000000000
      6873        61  SAPE      H8R            30.0126942632      -10.0582223586       11.5647810556  MEMB      61              0.0000000000
      6874        61  SAPE      C29            31.2453386531       -9.3025687581       10.0608762993  MEMB      61              0.0000000000
      6875        61  SAPE      H9R            31.9269559321      -10.1267221258       10.3181096512  MEMB      61              0.0000000000
      6876        61  SAPE      C210           31.6587622130       -8.4604530106        8.8771878165  MEMB      61              0.0000000000
      6877        61  SAPE      H10R           31.3814360906       -9.0501834170        7.9773931851  MEMB      61              0.0000000000
      6878        61  SAPE      H10S           32.7685686157       -8.4972420516        8.8411717461  MEMB      61              0.0000000000
      6879        61  SAPE      C211           31.3520358265       -7.0029175981        8.8287931224  MEMB      61              0.0000000000
      6880        61  SAPE      H11R           31.5410979525       -6.4809954828        9.7784524030  MEMB      61              0.0000000000
      6881        61  SAPE      C212           31.0269053124       -6.3333458212        7.7578897742  MEMB      61              0.0000000000
      6882        61  SAPE      H12R           30.6395057199       -5.3041401475        7.7835368480  MEMB      61              0.0000000000
      6883        61  SAPE      C213           30.9382754131       -6.8123149164        6.3571133500  MEMB      61              0.0000000000
      6884        61  SAPE      H13R           30.1048372485       -7.5350712865        6.2254898462  MEMB      61              0.0000000000
      6885        61  SAPE      H13S           31.8732826437       -7.3559603415        6.1030816460  MEMB      61              0.0000000000
      6886        61  SAPE      C214           30.7486972598       -5.7294529712        5.3475420774  MEMB      61              0.0000000000
      6887        61  SAPE      H14R           30.5788333324       -4.7245307805        5.7613988397  MEMB      61              0.0000000000
      6888        61  SAPE      C215           30.6424480193       -6.0097593228        4.0102400114  MEMB      61              0.0000000000
      6889        61  SAPE      H15R           30.5653838432       -5.1555127257        3.3215284028  MEMB      61              0.0000000000
      6890        61  SAPE      C216           30.6368261068       -7.3043212855        3.2787365349  MEMB      61              0.0000000000
      6891        61  SAPE      H16R           30.4471184334       -8.1457613724        3.9789580411  MEMB      61              0.0000000000
      6892        61  SAPE      H16S           31.5853130645       -7.5385680981        2.7497546620  MEMB      61              0.0000000000
      6893        61  SAPE      C217           29.4522354396       -7.5620943988        2.2343542878  MEMB      61              0.0000000000
      6894        61  SAPE      H17R           28.4844493833       -7.4131581998        2.7592622149  MEMB      61              0.0000000000
      6895        61  SAPE      H17S           29.4862316420       -8.6253091468        1.9138236801  MEMB      61              0.0000000000
      6896        61  SAPE      C218           29.6364694796       -6.6143391651        0.9238011219  MEMB      61              0.0000000000
      6897        61  SAPE      H18R           30.6976174641       -6.9239770190        0.8123995975  MEMB      61              0.0000000000
      6898        61  SAPE      H18S           29.5324171843       -5.5418116854        1.1943172300  MEMB      61              0.0000000000
      6899        61  SAPE      C219           28.6391002981       -6.8942059712       -0.2505317873  MEMB      61              0.0000000000
      6900        61  SAPE      H19R           28.8683136901       -6.2628064062       -1.1354697619  MEMB      61              0.0000000000
      6901        61  SAPE      H19S           27.5985570227       -6.6610206788        0.0612623715  MEMB      61              0.0000000000
      6902        61  SAPE      C220           28.6867996060       -8.3602797181       -0.7380041784  MEMB      61              0.0000000000
      6903        61  SAPE      H20R           28.3518240078       -9.1053439860        0.0149851974  MEMB      61              0.0000000000
      6904        61  SAPE      H20S           29.5707542328       -8.7608350301       -1.2788371058  MEMB      61              0.0000000000
      6905        61  SAPE      H20T           27.9750962651       -8.4574022429       -1.5855684179  MEMB      61              0.0000000000
      6906        61  SAPE      C33            32.3636493122      -10.4746080450       14.6566020604  MEMB      61              0.0000000000
      6907        61  SAPE      H3X            31.4473670192      -10.4844191518       14.0283892241  MEMB      61              0.0000000000
      6908        61  SAPE      H3Y            32.1368478038      -10.7715334488       15.7028893367  MEMB      61              0.0000000000
      6909        61  SAPE      C34            33.2630236238      -11.4789831341       13.8908888263  MEMB      61              0.0000000000
      6910        61  SAPE      H4X            34.2899304945      -11.2086898576       14.2175763575  MEMB      61              0.0000000000
      6911        61  SAPE      H4Y            33.0714063664      -11.1449000107       12.8487794407  MEMB      61              0.0000000000
      6912        61  SAPE      C35            32.7561714937      -12.9185725676       13.9115003538  MEMB      61              0.0000000000
      6913        61  SAPE      H5X            32.4415506394      -13.0567610901       14.9680220430  MEMB      61              0.0000000000
      6914        61  SAPE      H5Y            33.5614498737      -13.6629254549       13.7332125477  MEMB      61              0.0000000000
      6915        61  SAPE      C36            31.4745405879      -13.3089961373       13.0810363903  MEMB      61              0.0000000000
      6916        61  SAPE      H6X            30.6433652363      -12.8331005359       13.6440565738  MEMB      61              0.0000000000
      6917        61  SAPE      H6Y            31.4325238224      -14.4094182263       13.2280978859  MEMB      61              0.0000000000
      6918        61  SAPE      C37            31.5389504479      -12.8759830051       11.5968416707  MEMB      61              0.0000000000
      6919        61  SAPE      H7X            31.5955283392      -11.7673927633       11.6431825559  MEMB      61              0.0000000000
      6920        61  SAPE      H7Y            30.5927538074      -13.1770898031       11.0984766484  MEMB      61              0.0000000000
      6921        61  SAPE      C38            32.7551597003      -13.3743193638       10.8125914808  MEMB      61              0.0000000000
      6922        61  SAPE      H8X            32.7582601180      -14.4849877879       10.8395524810  MEMB      61              0.0000000000
      6923        61  SAPE      H8Y            33.7093574666      -13.0770065796       11.2978062558  MEMB      61              0.0000000000
      6924        61  SAPE      C39            32.7648257358      -13.0385735686        9.2433680711  MEMB      61              0.0000000000
      6925        61  SAPE      H9X            33.6348916284      -13.5198588209        8.7477165299  MEMB      61              0.0000000000
      6926        61  SAPE      H9Y            32.8206438282      -11.9404201429        9.0844219408  MEMB      61              0.0000000000
      6927        61  SAPE      C310           31.5761502124      -13.6358217253        8.5490641626  MEMB      61              0.0000000000
      6928        61  SAPE      H10X           30.6139881187      -13.3381442204        9.0180555278  MEMB      61              0.0000000000
      6929        61  SAPE      H10Y           31.7292482455      -14.7357192673        8.5823385985  MEMB      61              0.0000000000
      6930        61  SAPE      C311           31.5683782076      -13.2631918686        7.0886914928  MEMB      61              0.0000000000
      6931        61  SAPE      H11X           30.7619426195      -13.8509829093        6.6003424201  MEMB      61              0.0000000000
      6932        61  SAPE      H11Y           32.5208074615      -13.4940240509        6.5653210154  MEMB      61              0.0000000000
      6933        61  SAPE      C312           31.3852514716      -11.7342010351        6.7750497051  MEMB      61              0.0000000000
      6934        61  SAPE      H12X           32.2570897813      -11.1494362323        7.1387375388  MEMB      61              0.0000000000
      6935        61  SAPE      H12Y           30.5377098361      -11.4575257780        7.4379564112  MEMB      61              0.0000000000
      6936        61  SAPE      C313           31.0469461800      -11.4383095472        5.3424541091  MEMB      61              0.0000000000
      6937        61  SAPE      H13X           31.8984104763      -11.6171069518        4.6515405158  MEMB      61              0.0000000000
      6938        61  SAPE      H13Y           30.9507793045      -10.3331494102        5.2816741439  MEMB      61              0.0000000000
      6939        61  SAPE      C314           29.7118412808      -12.0289044281        4.9036078247  MEMB      61              0.0000000000
      6940        61  SAPE      H14X           28.8844667315      -11.6092701611        5.5149007263  MEMB      61              0.0000000000
      6941        61  SAPE      H14Y           29.5730902401      -13.1247022520        5.0231754608  MEMB      61              0.0000000000
      6942        61  SAPE      C315           29.3354336730      -11.6290509943        3.4994451174  MEMB      61              0.0000000000
      6943        61  SAPE      H15X           30.0133293069      -12.2037346925        2.8327241971  MEMB      61              0.0000000000
      6944        61  SAPE      H15Y           29.4600788248      -10.5600757367        3.2236240153  MEMB      61              0.0000000000
      6945        61  SAPE      C316           27.8955171708      -12.0811650250        3.2119935268  MEMB      61              0.0000000000
      6946        61  SAPE      H16X           27.3452801071      -11.9613262705        4.1696977505  MEMB      61              0.0000000000
      6947        61  SAPE      H16Y           27.9027849611      -13.1707504513        2.9950322363  MEMB      61              0.0000000000
      6948        61  SAPE      C317           27.2158667198      -11.1451693907        2.2063424053  MEMB      61              0.0000000000
      6949        61  SAPE      H17X           27.8065274798      -11.1146786630        1.2658583507  MEMB      61              0.0000000000
      6950        61  SAPE      H17Y           27.3043329262      -10.1630010349        2.7180458251  MEMB      61              0.0000000000
      6951        61  SAPE      C318           25.7768856390      -11.4995501305        1.8121376767  MEMB      61              0.0000000000
      6952        61  SAPE      H18X           25.3317083286      -12.0210264946        2.6863234926  MEMB      61              0.0000000000
      6953        61  SAPE      H18Y           25.5847135201      -12.2546148302        1.0201353675  MEMB      61              0.0000000000
      6954        61  SAPE      H18Z           25.1812383301      -10.5843601206        1.6073148557  MEMB      61              0.0000000000
      6955        62  SAPE      N              28.3102624125      -18.9324352499       23.0859734382  MEMB      62              0.0000000000
      6956        62  SAPE      HN1            28.9357347687      -19.5617081324       22.5433870937  MEMB      62              0.0000000000
      6957        62  SAPE      HN2            28.7060550305      -18.7578586815       24.0317383482  MEMB      62              0.0000000000
      6958        62  SAPE      HN3            27.3848699265      -19.3924232002       23.2028482166  MEMB      62              0.0000000000
      6959        62  SAPE      C12            28.2271618240      -17.8008836802       22.1122723018  MEMB      62              0.0000000000
      6960        62  SAPE      H12A           28.9601330394      -17.0593161011       22.4958756953  MEMB      62              0.0000000000
      6961        62  SAPE      H12B           27.2458184119      -17.2804004647       22.1318568930  MEMB      62              0.0000000000
      6962        62  SAPE      C11            28.2878691411      -18.1816271101       20.6289639151  MEMB      62              0.0000000000
      6963        62  SAPE      H11A           29.1225470818      -18.8952903072       20.4606829171  MEMB      62              0.0000000000
      6964        62  SAPE      H11B           28.4934876264      -17.2012643844       20.1484113127  MEMB      62              0.0000000000
      6965        62  SAPE      P              27.1251996610      -19.5966435751       18.8072485721  MEMB      62              0.0000000000
      6966        62  SAPE      O13            28.2322767455      -20.5539577922       18.9813486206  MEMB      62              0.0000000000
      6967        62  SAPE      O14            25.8078232807      -20.0742517492       18.4926938041  MEMB      62              0.0000000000
      6968        62  SAPE      O12            27.1190061091      -18.7987196434       20.1411059041  MEMB      62              0.0000000000
      6969        62  SAPE      O11            27.5517520614      -18.6004771951       17.7503934339  MEMB      62              0.0000000000
      6970        62  SAPE      C1             28.8684343647      -18.1633937043       17.3600547931  MEMB      62              0.0000000000
      6971        62  SAPE      HA             28.9193112460      -17.0977935406       17.6702623829  MEMB      62              0.0000000000
      6972        62  SAPE      HB             29.5857846831      -18.6808186743       18.0323649017  MEMB      62              0.0000000000
      6973        62  SAPE      C2             29.1742178567      -18.6772503922       15.9200233077  MEMB      62              0.0000000000
      6974        62  SAPE      HS             30.2500567600      -18.5473543527       15.6750360580  MEMB      62              0.0000000000
      6975        62  SAPE      O21            28.2555265928      -18.0608924242       15.0294591385  MEMB      62              0.0000000000
      6976        62  SAPE      C21            28.4021266051      -16.7592531601       14.7948460577  MEMB      62              0.0000000000
      6977        62  SAPE      O22            29.3624245449      -16.0906465356       15.0829344900  MEMB      62              0.0000000000
      6978        62  SAPE      C22            27.1089207782      -16.1470841799       14.3007666750  MEMB      62              0.0000000000
      6979        62  SAPE      H2R            26.2398203134      -16.6993360920       14.7179038053  MEMB      62              0.0000000000
      6980        62  SAPE      H2S            27.0167981552      -15.1004690171       14.6619195211  MEMB      62              0.0000000000
      6981        62  SAPE      C3             28.9590534843      -20.1925838954       15.7021045542  MEMB      62              0.0000000000
      6982        62  SAPE      HX             27.9106829944      -20.4886770127       15.9202083916  MEMB      62              0.0000000000
      6983        62  SAPE      HY             29.6070906354      -20.6277613790       16.4926674526  MEMB      62              0.0000000000
      6984        62  SAPE      O31            29.3680786624      -20.6035529515       14.3350663260  MEMB      62              0.0000000000
      6985        62  SAPE      C31            29.7074318032      -21.8377423980       14.1759831269  MEMB      62              0.0000000000
      6986        62  SAPE      O32            29.7954781431      -22.6610323868       15.1146939191  MEMB      62              0.0000000000
      6987        62  SAPE      C32            30.0050754253      -22.2494566814       12.7019013164  MEMB      62              0.0000000000
      6988        62  SAPE      H2X            29.2280402061      -22.9024852612       12.2501369126  MEMB      62              0.0000000000
      6989        62  SAPE      H2Y            30.9016819796      -22.9021511940       12.7682902351  MEMB      62              0.0000000000
      6990        62  SAPE      C23            26.9314822249      -15.9919043001       12.6968340694  MEMB      62              0.0000000000
      6991        62  SAPE      H3R            27.9579840227      -15.8193396693       12.3084568807  MEMB      62              0.0000000000
      6992        62  SAPE      H3S            26.4207662166      -15.0425662051       12.4280458853  MEMB      62              0.0000000000
      6993        62  SAPE      C24            26.4340876039      -17.1841852106       11.8824973285  MEMB      62              0.0000000000
      6994        62  SAPE      H4R            26.4910925684      -16.8241030637       10.8330155950  MEMB      62              0.0000000000
      6995        62  SAPE      H4S            25.3534248903      -17.2213776508       12.1376559888  MEMB      62              0.0000000000
      6996        62  SAPE      C25            27.2067659413      -18.4986042542       12.1056228025  MEMB      62              0.0000000000
      6997        62  SAPE      H5R            28.2546123502      -18.3876285769       12.4213794338  MEMB      62              0.0000000000
      6998        62  SAPE      C26            26.7625541495      -19.7277547149       12.1524452498  MEMB      62              0.0000000000
      6999        62  SAPE      H6R            27.5462845706      -20.4938983282       12.2462032037  MEMB      62              0.0000000000
      7000        62  SAPE      C27            25.3472312639      -20.2268898430       12.0510206242  MEMB      62              0.0000000000
      7001        62  SAPE      H7R            24.5892932673      -19.5282723001       11.6365517600  MEMB      62              0.0000000000
      7002        62  SAPE      H7S            24.8726621487      -20.2976399461       13.0530686612  MEMB      62              0.0000000000
      7003        62  SAPE      C28            25.2059126672      -21.5776354599       11.3799888460  MEMB      62              0.0000000000
      7004        62  SAPE      H8R            24.7804622143      -22.2922812418       12.0999009274  MEMB      62              0.0000000000
      7005        62  SAPE      C29            25.4930608781      -21.9081475863       10.0934140299  MEMB      62              0.0000000000
      7006        62  SAPE      H9R            25.1826873502      -22.8596549976        9.6370130062  MEMB      62              0.0000000000
      7007        62  SAPE      C210           26.0283241613      -20.8346090729        9.1280798968  MEMB      62              0.0000000000
      7008        62  SAPE      H10R           27.0953225353      -21.1428815948        9.1564234633  MEMB      62              0.0000000000
      7009        62  SAPE      H10S           25.9389777354      -19.7854663161        9.4825346167  MEMB      62              0.0000000000
      7010        62  SAPE      C211           25.4008181900      -20.9665911052        7.7153038073  MEMB      62              0.0000000000
      7011        62  SAPE      H11R           24.8058804994      -21.8723643062        7.5265614310  MEMB      62              0.0000000000
      7012        62  SAPE      C212           25.2802309868      -20.0480761348        6.7582300799  MEMB      62              0.0000000000
      7013        62  SAPE      H12R           24.8306659114      -20.3687771952        5.8068925409  MEMB      62              0.0000000000
      7014        62  SAPE      C213           25.7271806515      -18.6084332752        6.7469666629  MEMB      62              0.0000000000
      7015        62  SAPE      H13R           24.8100725160      -18.1102187499        7.1277753963  MEMB      62              0.0000000000
      7016        62  SAPE      H13S           25.9215487805      -18.2751817075        5.7051003387  MEMB      62              0.0000000000
      7017        62  SAPE      C214           26.9076786538      -18.1010932719        7.5647430587  MEMB      62              0.0000000000
      7018        62  SAPE      H14R           26.7867283264      -17.9472332885        8.6471933637  MEMB      62              0.0000000000
      7019        62  SAPE      C215           28.0984884799      -17.8601389928        7.0524314614  MEMB      62              0.0000000000
      7020        62  SAPE      H15R           28.7963317071      -17.3563398251        7.7374136544  MEMB      62              0.0000000000
      7021        62  SAPE      C216           28.6020658106      -18.0546584520        5.6491972160  MEMB      62              0.0000000000
      7022        62  SAPE      H16R           28.4665218273      -17.0731118642        5.1466889863  MEMB      62              0.0000000000
      7023        62  SAPE      H16S           28.1087564040      -18.9064081237        5.1339410930  MEMB      62              0.0000000000
      7024        62  SAPE      C217           30.0782061370      -18.4409838027        5.7181870585  MEMB      62              0.0000000000
      7025        62  SAPE      H17R           30.1266843102      -19.4271863589        6.2274759336  MEMB      62              0.0000000000
      7026        62  SAPE      H17S           30.6972602653      -17.6477284951        6.1891851834  MEMB      62              0.0000000000
      7027        62  SAPE      C218           30.7663866855      -18.4788889156        4.2898575339  MEMB      62              0.0000000000
      7028        62  SAPE      H18R           30.5027565042      -17.5994129503        3.6642845973  MEMB      62              0.0000000000
      7029        62  SAPE      H18S           30.1572008007      -19.2566839776        3.7816765070  MEMB      62              0.0000000000
      7030        62  SAPE      C219           32.3120409791      -18.7573160169        4.2629225889  MEMB      62              0.0000000000
      7031        62  SAPE      H19R           32.5242851502      -19.7310681953        4.7539213263  MEMB      62              0.0000000000
      7032        62  SAPE      H19S           32.7153568147      -17.9795169064        4.9460668698  MEMB      62              0.0000000000
      7033        62  SAPE      C220           32.8179526812      -18.6259833117        2.8237933144  MEMB      62              0.0000000000
      7034        62  SAPE      H20R           33.9256546657      -18.5412252741        2.8122686069  MEMB      62              0.0000000000
      7035        62  SAPE      H20S           32.2984631871      -17.7803991091        2.3243550248  MEMB      62              0.0000000000
      7036        62  SAPE      H20T           32.5853677037      -19.5000582913        2.1786432631  MEMB      62              0.0000000000
      7037        62  SAPE      C33            30.3978003468      -21.0641247191       11.8274551942  MEMB      62              0.0000000000
      7038        62  SAPE      H3X            30.9557891533      -20.3364869259       12.4547610082  MEMB      62              0.0000000000
      7039        62  SAPE      H3Y            29.6308760676      -20.3607033012       11.4384223395  MEMB      62              0.0000000000
      7040        62  SAPE      C34            31.2458980060      -21.2913746698       10.5793028442  MEMB      62              0.0000000000
      7041        62  SAPE      H4X            32.2306896026      -21.6318023534       10.9648097798  MEMB      62              0.0000000000
      7042        62  SAPE      H4Y            31.4266822151      -20.3581658896       10.0041852454  MEMB      62              0.0000000000
      7043        62  SAPE      C35            30.7086196934      -22.3661209426        9.6590688020  MEMB      62              0.0000000000
      7044        62  SAPE      H5X            30.1070479634      -23.1886612204       10.1016292069  MEMB      62              0.0000000000
      7045        62  SAPE      H5Y            31.6563500009      -22.7561597538        9.2301197429  MEMB      62              0.0000000000
      7046        62  SAPE      C36            29.9934624844      -21.7287072050        8.3966368775  MEMB      62              0.0000000000
      7047        62  SAPE      H6X            30.6719027022      -20.9562322229        7.9755397238  MEMB      62              0.0000000000
      7048        62  SAPE      H6Y            29.0754784466      -21.1677097563        8.6739589670  MEMB      62              0.0000000000
      7049        62  SAPE      C37            29.7353231227      -22.7069258529        7.2668382059  MEMB      62              0.0000000000
      7050        62  SAPE      H7X            30.4971476672      -23.5135680968        7.2096324465  MEMB      62              0.0000000000
      7051        62  SAPE      H7Y            29.8006495413      -22.1904283392        6.2853683381  MEMB      62              0.0000000000
      7052        62  SAPE      C38            28.3366438761      -23.3124041036        7.3926360467  MEMB      62              0.0000000000
      7053        62  SAPE      H8X            27.5727214631      -22.5081225473        7.3303883613  MEMB      62              0.0000000000
      7054        62  SAPE      H8Y            28.2295517994      -23.8355549508        8.3668873616  MEMB      62              0.0000000000
      7055        62  SAPE      C39            27.8815482231      -24.3439080251        6.2794553593  MEMB      62              0.0000000000
      7056        62  SAPE      H9X            26.8963149698      -24.7987653433        6.5176594079  MEMB      62              0.0000000000
      7057        62  SAPE      H9Y            28.5848698597      -25.2015738621        6.2156637054  MEMB      62              0.0000000000
      7058        62  SAPE      C310           27.7176826779      -23.6323146116        4.9115587537  MEMB      62              0.0000000000
      7059        62  SAPE      H10X           27.3435938835      -24.4791011270        4.2972859228  MEMB      62              0.0000000000
      7060        62  SAPE      H10Y           28.6689000991      -23.2594668911        4.4751066449  MEMB      62              0.0000000000
      7061        62  SAPE      C311           26.7163721084      -22.5113832715        4.8265898769  MEMB      62              0.0000000000
      7062        62  SAPE      H11X           27.1302811381      -21.6604289497        5.4087215804  MEMB      62              0.0000000000
      7063        62  SAPE      H11Y           25.7026297574      -22.8546217725        5.1246412271  MEMB      62              0.0000000000
      7064        62  SAPE      C312           26.5873321876      -22.0273193944        3.3319234262  MEMB      62              0.0000000000
      7065        62  SAPE      H12X           26.2854523368      -22.9955276462        2.8783128899  MEMB      62              0.0000000000
      7066        62  SAPE      H12Y           27.5960417751      -21.7961322258        2.9277222032  MEMB      62              0.0000000000
      7067        62  SAPE      C313           25.6147347682      -20.8903128359        3.0188517906  MEMB      62              0.0000000000
      7068        62  SAPE      H13X           24.8367050252      -20.9045398485        3.8118127454  MEMB      62              0.0000000000
      7069        62  SAPE      H13Y           25.2223028926      -21.2673481548        2.0502624902  MEMB      62              0.0000000000
      7070        62  SAPE      C314           26.1662871672      -19.5496017256        2.7544234152  MEMB      62              0.0000000000
      7071        62  SAPE      H14X           26.6541722393      -19.1468460077        3.6677009362  MEMB      62              0.0000000000
      7072        62  SAPE      H14Y           25.3816361898      -18.8698142317        2.3587805750  MEMB      62              0.0000000000
      7073        62  SAPE      C315           27.1614457816      -19.4439964062        1.5400370575  MEMB      62              0.0000000000
      7074        62  SAPE      H15X           27.9888972933      -20.1384164514        1.7997012198  MEMB      62              0.0000000000
      7075        62  SAPE      H15Y           27.6760576264      -18.4612730398        1.6012775610  MEMB      62              0.0000000000
      7076        62  SAPE      C316           26.4136242099      -19.5065212956        0.1218061070  MEMB      62              0.0000000000
      7077        62  SAPE      H16X           25.6506465769      -18.6992483983        0.1440925335  MEMB      62              0.0000000000
      7078        62  SAPE      H16Y           25.8172599988      -20.4374042582        0.0116816657  MEMB      62              0.0000000000
      7079        62  SAPE      C317           27.4627013178      -19.2785007442       -1.0656776056  MEMB      62              0.0000000000
      7080        62  SAPE      H17X           28.1823119323      -20.1226554693       -1.0033546109  MEMB      62              0.0000000000
      7081        62  SAPE      H17Y           28.0533719351      -18.3512747113       -0.9054234591  MEMB      62              0.0000000000
      7082        62  SAPE      C318           26.8623618537      -18.9969009185       -2.4307217830  MEMB      62              0.0000000000
      7083        62  SAPE      H18X           26.2648849762      -18.0627656972       -2.4995243804  MEMB      62              0.0000000000
      7084        62  SAPE      H18Y           26.1418457929      -19.8020555804       -2.6893796338  MEMB      62              0.0000000000
      7085        62  SAPE      H18Z           27.7080604871      -18.8739950759       -3.1406568665  MEMB      62              0.0000000000
      7086        63  OSM       N             -14.2862196702      -30.4954594529       22.8436112798  MEMB      63              0.0000000000
      7087        63  OSM       C15           -13.6150439627      -31.5612933859       23.6922479989  MEMB      63              0.0000000000
      7088        63  OSM       H15A          -13.4449644682      -31.2454154249       24.7109206952  MEMB      63              0.0000000000
      7089        63  OSM       H15B          -12.6432545373      -31.8938313286       23.3584159151  MEMB      63              0.0000000000
      7090        63  OSM       H15C          -14.1925525190      -32.4729720246       23.7337924016  MEMB      63              0.0000000000
      7091        63  OSM       C14           -15.6891965607      -30.1718872523       23.4273316974  MEMB      63              0.0000000000
      7092        63  OSM       H14A          -16.2168744029      -29.8153131261       22.5550867553  MEMB      63              0.0000000000
      7093        63  OSM       H14B          -15.6695170812      -29.5273929604       24.2937262915  MEMB      63              0.0000000000
      7094        63  OSM       H14C          -16.1108151492      -31.0751732781       23.8429182221  MEMB      63              0.0000000000
      7095        63  OSM       C13           -13.4599705894      -29.2865592018       22.9321547108  MEMB      63              0.0000000000
      7096        63  OSM       H13A          -13.3544755179      -29.1053716251       23.9916081611  MEMB      63              0.0000000000
      7097        63  OSM       H13B          -14.0019975737      -28.4826385669       22.4564254866  MEMB      63              0.0000000000
      7098        63  OSM       H13C          -12.4887169143      -29.3620701631       22.4659311559  MEMB      63              0.0000000000
      7099        63  OSM       C12           -14.3461262167      -31.0204816590       21.3811708279  MEMB      63              0.0000000000
      7100        63  OSM       H12A          -15.0604118886      -31.8162391091       21.5327162994  MEMB      63              0.0000000000
      7101        63  OSM       H12B          -13.3825422587      -31.4351946056       21.1244236243  MEMB      63              0.0000000000
      7102        63  OSM       C11           -14.9110538534      -30.1627467124       20.2102370889  MEMB      63              0.0000000000
      7103        63  OSM       H11A          -15.9122085734      -29.7639901370       20.4804286850  MEMB      63              0.0000000000
      7104        63  OSM       H11B          -15.0802085886      -30.7237255552       19.2663036463  MEMB      63              0.0000000000
      7105        63  OSM       P             -12.6471727826      -29.2288915620       19.2784555209  MEMB      63              0.0000000000
      7106        63  OSM       O13           -11.7250566128      -29.1556150925       20.4185812095  MEMB      63              0.0000000000
      7107        63  OSM       O14           -12.6232742274      -30.4680294463       18.4861452972  MEMB      63              0.0000000000
      7108        63  OSM       O11           -12.4799588994      -27.8980420696       18.3680424763  MEMB      63              0.0000000000
      7109        63  OSM       O12           -14.0370755007      -29.0603475528       19.9620219013  MEMB      63              0.0000000000
      7110        63  OSM       C1S           -11.5755116552      -27.8028473806       17.2705411278  MEMB      63              0.0000000000
      7111        63  OSM       H1S           -10.7949171994      -28.5777508341       17.4271234198  MEMB      63              0.0000000000
      7112        63  OSM       H1T           -11.0248267310      -26.8381576419       17.2915392795  MEMB      63              0.0000000000
      7113        63  OSM       NF            -11.3562493580      -28.2957728514       14.9328334446  MEMB      63              0.0000000000
      7114        63  OSM       HNF           -11.2863537649      -27.5326341790       14.2950693167  MEMB      63              0.0000000000
      7115        63  OSM       C2S           -12.2825293824      -27.9568093913       15.8877876554  MEMB      63              0.0000000000
      7116        63  OSM       H2S           -13.0757096749      -28.7322695891       15.9498156889  MEMB      63              0.0000000000
      7117        63  OSM       C3S           -12.9088236517      -26.5954418427       15.4930387389  MEMB      63              0.0000000000
      7118        63  OSM       H3S           -12.0999885215      -25.8635059627       15.2823818004  MEMB      63              0.0000000000
      7119        63  OSM       O3            -13.8437530284      -26.2157946686       16.4547879650  MEMB      63              0.0000000000
      7120        63  OSM       HO3           -13.7322272656      -26.7486811154       17.2454799859  MEMB      63              0.0000000000
      7121        63  OSM       C4S           -13.6634189033      -26.7159542239       14.1971563147  MEMB      63              0.0000000000
      7122        63  OSM       H4S           -14.7255094925      -27.0008394162       14.2255126936  MEMB      63              0.0000000000
      7123        63  OSM       C5S           -13.1824358983      -26.3732028712       13.0305363240  MEMB      63              0.0000000000
      7124        63  OSM       H5S           -12.1115297758      -26.1760867227       12.8746339780  MEMB      63              0.0000000000
      7125        63  OSM       C6S           -13.9766319795      -26.4925957771       11.7427514376  MEMB      63              0.0000000000
      7126        63  OSM       H6S           -14.2500604975      -25.5175506150       11.2857567715  MEMB      63              0.0000000000
      7127        63  OSM       H6T           -14.9179409383      -27.0336913233       11.9782813797  MEMB      63              0.0000000000
      7128        63  OSM       C7S           -13.0835540649      -27.4159471458       10.8348795284  MEMB      63              0.0000000000
      7129        63  OSM       H7S           -12.9844323157      -28.4490760027       11.2312893520  MEMB      63              0.0000000000
      7130        63  OSM       H7T           -12.1172102140      -26.9277125378       10.5856250960  MEMB      63              0.0000000000
      7131        63  OSM       C8S           -13.8122027675      -27.6666598930        9.4320234327  MEMB      63              0.0000000000
      7132        63  OSM       H8S           -13.7343281957      -26.6919838008        8.9045165378  MEMB      63              0.0000000000
      7133        63  OSM       H8T           -14.8510363197      -27.9022504417        9.7476852148  MEMB      63              0.0000000000
      7134        63  OSM       C9S           -13.2659813508      -28.8368990634        8.5913999148  MEMB      63              0.0000000000
      7135        63  OSM       H9S           -13.2913152614      -29.8247923160        9.0990867809  MEMB      63              0.0000000000
      7136        63  OSM       H9T           -12.2476938242      -28.7051903195        8.1670599367  MEMB      63              0.0000000000
      7137        63  OSM       C10S          -14.1021539942      -29.0168719348        7.2926479618  MEMB      63              0.0000000000
      7138        63  OSM       H10S          -13.9056358878      -28.1450719045        6.6325974493  MEMB      63              0.0000000000
      7139        63  OSM       H10T          -15.1576653869      -29.0535325414        7.6374273704  MEMB      63              0.0000000000
      7140        63  OSM       C11S          -13.6815028390      -30.2130919666        6.4700380028  MEMB      63              0.0000000000
      7141        63  OSM       H11S          -13.9987869111      -31.1494380105        6.9768995037  MEMB      63              0.0000000000
      7142        63  OSM       H11T          -12.5742956125      -30.1640488117        6.3925278703  MEMB      63              0.0000000000
      7143        63  OSM       C12S          -14.2754268665      -30.2140592130        5.0831636062  MEMB      63              0.0000000000
      7144        63  OSM       H12S          -13.9376309422      -29.2630830851        4.6185571535  MEMB      63              0.0000000000
      7145        63  OSM       H12T          -15.3851509153      -30.1703929847        5.0527229200  MEMB      63              0.0000000000
      7146        63  OSM       C13S          -13.7181714126      -31.3723778543        4.3069109312  MEMB      63              0.0000000000
      7147        63  OSM       H13S          -14.3964327777      -32.1921926002        4.6265770115  MEMB      63              0.0000000000
      7148        63  OSM       H13T          -12.6864437464      -31.6078928314        4.6451291610  MEMB      63              0.0000000000
      7149        63  OSM       C14S          -13.6445493901      -31.1231218196        2.8225493083  MEMB      63              0.0000000000
      7150        63  OSM       H14S          -12.7673438703      -30.4473249916        2.7323851816  MEMB      63              0.0000000000
      7151        63  OSM       H14T          -14.4971268727      -30.5401903428        2.4131317469  MEMB      63              0.0000000000
      7152        63  OSM       C15S          -13.3745191128      -32.4741373573        2.1545370262  MEMB      63              0.0000000000
      7153        63  OSM       H15S          -14.3153418275      -33.0540371431        2.2680713002  MEMB      63              0.0000000000
      7154        63  OSM       H15T          -12.5746935439      -33.0413570309        2.6768983984  MEMB      63              0.0000000000
      7155        63  OSM       C16S          -12.9343470322      -32.3941709087        0.6567794455  MEMB      63              0.0000000000
      7156        63  OSM       H16S          -13.7914982987      -31.9224972605        0.1303415746  MEMB      63              0.0000000000
      7157        63  OSM       H16T          -12.9181228158      -33.4571925547        0.3342221875  MEMB      63              0.0000000000
      7158        63  OSM       C17S          -11.5526425074      -31.7655487239        0.3456587354  MEMB      63              0.0000000000
      7159        63  OSM       H17S          -10.7295169921      -32.1873461683        0.9611847767  MEMB      63              0.0000000000
      7160        63  OSM       H17T          -11.6031318634      -30.7145010205        0.7021283446  MEMB      63              0.0000000000
      7161        63  OSM       C18S          -11.1013219180      -31.7683574715       -1.1148502516  MEMB      63              0.0000000000
      7162        63  OSM       H18S          -10.2802278490      -31.0316629151       -1.2467833313  MEMB      63              0.0000000000
      7163        63  OSM       H18T          -11.9618070915      -31.4287134656       -1.7300957570  MEMB      63              0.0000000000
      7164        63  OSM       H18U          -10.7963519093      -32.8105673537       -1.3496096239  MEMB      63              0.0000000000
      7165        63  OSM       C1F           -10.8149902525      -29.5685934685       14.8249375616  MEMB      63              0.0000000000
      7166        63  OSM       OF            -11.3333844897      -30.5270715766       15.3917578313  MEMB      63              0.0000000000
      7167        63  OSM       C2F            -9.7080794097      -29.7021032958       13.7881942390  MEMB      63              0.0000000000
      7168        63  OSM       H2F            -9.2870975743      -30.7170595349       13.9523867682  MEMB      63              0.0000000000
      7169        63  OSM       H2G            -8.9577207021      -28.8855736666       13.8557372091  MEMB      63              0.0000000000
      7170        63  OSM       C3F           -10.2601485591      -29.7363442793       12.3401532262  MEMB      63              0.0000000000
      7171        63  OSM       H3F           -10.4632465128      -28.7439634463       11.8838058316  MEMB      63              0.0000000000
      7172        63  OSM       H3G           -11.1892375244      -30.3439532532       12.3840379088  MEMB      63              0.0000000000
      7173        63  OSM       C4F            -9.2933133521      -30.3375031271       11.2822847888  MEMB      63              0.0000000000
      7174        63  OSM       H4F            -9.0703269513      -31.4183109784       11.4105523796  MEMB      63              0.0000000000
      7175        63  OSM       H4G            -8.3450641803      -29.7635432696       11.3578794390  MEMB      63              0.0000000000
      7176        63  OSM       C5F            -9.8724116875      -30.2111444421        9.8445069617  MEMB      63              0.0000000000
      7177        63  OSM       H5F            -9.9463907111      -29.1209265713        9.6438250208  MEMB      63              0.0000000000
      7178        63  OSM       H5G           -10.8215080895      -30.7729005672        9.9785482724  MEMB      63              0.0000000000
      7179        63  OSM       C6F            -8.9877261909      -30.8788772820        8.7150395990  MEMB      63              0.0000000000
      7180        63  OSM       H6F            -8.9413163870      -31.9370909124        9.0502281378  MEMB      63              0.0000000000
      7181        63  OSM       H6G            -8.0015973391      -30.3691707079        8.6695420754  MEMB      63              0.0000000000
      7182        63  OSM       C7F            -9.6612242464      -30.9183888444        7.3582115372  MEMB      63              0.0000000000
      7183        63  OSM       H7F           -10.1175175857      -29.9288117892        7.1417521472  MEMB      63              0.0000000000
      7184        63  OSM       H7G           -10.6397736862      -31.4375580019        7.2732088715  MEMB      63              0.0000000000
      7185        63  OSM       C8F            -8.7781231236      -31.4416635113        6.2334767656  MEMB      63              0.0000000000
      7186        63  OSM       H8F            -8.2487910666      -32.3983494004        6.4306585394  MEMB      63              0.0000000000
      7187        63  OSM       H8G            -7.9804084950      -30.6772937287        6.3505714411  MEMB      63              0.0000000000
      7188        63  OSM       C9F            -9.3887199214      -31.4878418635        4.8314262095  MEMB      63              0.0000000000
      7189        63  OSM       H9F            -9.8509500585      -32.4365577712        4.5211330917  MEMB      63              0.0000000000
      7190        63  OSM       C10F           -9.5699701843      -30.4320965091        4.0007427651  MEMB      63              0.0000000000
      7191        63  OSM       H10F          -10.1296011378      -30.5855994398        3.0662642274  MEMB      63              0.0000000000
      7192        63  OSM       C11F           -9.1991784881      -28.9492810055        4.2715049813  MEMB      63              0.0000000000
      7193        63  OSM       H11F           -8.7378612698      -28.5534699709        3.3415364590  MEMB      63              0.0000000000
      7194        63  OSM       H11G           -8.3897175192      -28.7471443930        5.0051495147  MEMB      63              0.0000000000
      7195        63  OSM       C12F          -10.4849606646      -28.1091722651        4.4650481034  MEMB      63              0.0000000000
      7196        63  OSM       H12F          -10.1801821513      -27.1307100233        4.8940499767  MEMB      63              0.0000000000
      7197        63  OSM       H12G          -11.1119314028      -28.6519207236        5.2044074041  MEMB      63              0.0000000000
      7198        63  OSM       C13F          -11.2002045917      -27.9087534918        3.1778638758  MEMB      63              0.0000000000
      7199        63  OSM       H13F          -11.5712753540      -28.8890521253        2.8095685335  MEMB      63              0.0000000000
      7200        63  OSM       H13G          -10.4719119841      -27.4592095527        2.4694699885  MEMB      63              0.0000000000
      7201        63  OSM       C14F          -12.4016760266      -26.8420908987        3.1856211650  MEMB      63              0.0000000000
      7202        63  OSM       H14F          -12.0733060367      -25.8146562640        3.4518403165  MEMB      63              0.0000000000
      7203        63  OSM       H14G          -13.1572673743      -27.2412460376        3.8956055008  MEMB      63              0.0000000000
      7204        63  OSM       C15F          -13.0932556988      -26.7093065731        1.7287625197  MEMB      63              0.0000000000
      7205        63  OSM       H15F          -13.8776945411      -25.9617682431        1.9740431775  MEMB      63              0.0000000000
      7206        63  OSM       H15G          -13.5493069825      -27.6955983612        1.4973177739  MEMB      63              0.0000000000
      7207        63  OSM       C16F          -12.2728543487      -26.1779737212        0.5864623801  MEMB      63              0.0000000000
      7208        63  OSM       H16F          -11.2030811149      -26.4338420307        0.7427865566  MEMB      63              0.0000000000
      7209        63  OSM       H16G          -12.0843098627      -25.0831688628        0.5732579355  MEMB      63              0.0000000000
      7210        63  OSM       C17F          -12.8510068676      -26.5712074839       -0.8474347316  MEMB      63              0.0000000000
      7211        63  OSM       H17F          -13.8495635522      -26.1234189736       -1.0389841245  MEMB      63              0.0000000000
      7212        63  OSM       H17G          -12.9183626866      -27.6623100423       -0.6492443564  MEMB      63              0.0000000000
      7213        63  OSM       C18F          -12.0266390419      -26.2855345019       -2.0103053993  MEMB      63              0.0000000000
      7214        63  OSM       H18F          -11.9268758197      -25.2005692642       -2.2276036414  MEMB      63              0.0000000000
      7215        63  OSM       H18G          -12.4136312630      -26.6692510055       -2.9784575875  MEMB      63              0.0000000000
      7216        63  OSM       H18H          -11.0601000446      -26.8183838097       -1.8830455342  MEMB      63              0.0000000000
      7217        64  CHL1      C3             23.0062762956       24.6349799299       17.3312450000  MEMB      64              0.0000000000
      7218        64  CHL1      H3             24.0827378536       24.8397732203       17.1479350000  MEMB      64              0.0000000000
      7219        64  CHL1      O3             22.7536513044       24.4493314701       18.6687550000  MEMB      64              0.0000000000
      7220        64  CHL1      H3'            23.3735976749       24.9734198042       19.1811950000  MEMB      64              0.0000000000
      7221        64  CHL1      C4             22.2358096131       25.8551499020       16.7677650000  MEMB      64              0.0000000000
      7222        64  CHL1      H4A            21.2384183826       25.9849700292       17.2396550000  MEMB      64              0.0000000000
      7223        64  CHL1      H4B            22.8748504686       26.6617340088       17.1865250000  MEMB      64              0.0000000000
      7224        64  CHL1      C5             22.0833163003       25.9705485971       15.2776950000  MEMB      64              0.0000000000
      7225        64  CHL1      C6             22.4641353485       27.0482443991       14.6386650000  MEMB      64              0.0000000000
      7226        64  CHL1      H6             22.8760442090       27.9882603711       15.0345250000  MEMB      64              0.0000000000
      7227        64  CHL1      C7             22.4956051671       27.2033450436       13.1072750000  MEMB      64              0.0000000000
      7228        64  CHL1      H7A            22.2429940421       28.2729330871       12.9444950000  MEMB      64              0.0000000000
      7229        64  CHL1      H7B            23.5609545011       27.1255895556       12.8018250000  MEMB      64              0.0000000000
      7230        64  CHL1      C8             21.5700838002       26.1226709604       12.4303050000  MEMB      64              0.0000000000
      7231        64  CHL1      H8             20.5396029058       26.3821125621       12.7545250000  MEMB      64              0.0000000000
      7232        64  CHL1      C14            21.9207385078       26.1022182379       10.9602150000  MEMB      64              0.0000000000
      7233        64  CHL1      H14            22.9697092708       25.7809597189       10.7847750000  MEMB      64              0.0000000000
      7234        64  CHL1      C15            21.9269256773       27.4200654202       10.1928350000  MEMB      64              0.0000000000
      7235        64  CHL1      H15A           21.1498515642       28.1459191732       10.5147050000  MEMB      64              0.0000000000
      7236        64  CHL1      H15B           22.8212296644       28.0175723517       10.4712850000  MEMB      64              0.0000000000
      7237        64  CHL1      C16            21.7810629146       27.0113098607        8.7333150000  MEMB      64              0.0000000000
      7238        64  CHL1      H16A           20.7749011759       27.3203942953        8.3777550000  MEMB      64              0.0000000000
      7239        64  CHL1      H16B           22.4907817525       27.5749046523        8.0906750000  MEMB      64              0.0000000000
      7240        64  CHL1      C17            21.8340416227       25.4731648295        8.6983250000  MEMB      64              0.0000000000
      7241        64  CHL1      H17            22.9134691388       25.2124782239        8.7329150000  MEMB      64              0.0000000000
      7242        64  CHL1      C13            21.1919256272       25.1162902357       10.0199650000  MEMB      64              0.0000000000
      7243        64  CHL1      C18            19.7038038930       25.3871264955        9.9842450000  MEMB      64              0.0000000000
      7244        64  CHL1      H18A           19.2500363330       25.1077185714       10.9591050000  MEMB      64              0.0000000000
      7245        64  CHL1      H18B           19.5198844862       26.4660686748        9.7935450000  MEMB      64              0.0000000000
      7246        64  CHL1      H18C           19.1803335785       24.7574900624        9.2333450000  MEMB      64              0.0000000000
      7247        64  CHL1      C12            21.5802778978       23.6792628477       10.5993150000  MEMB      64              0.0000000000
      7248        64  CHL1      H12A           21.1033246577       22.8111389897       10.0961250000  MEMB      64              0.0000000000
      7249        64  CHL1      H12B           22.6882244122       23.5979834095       10.5865250000  MEMB      64              0.0000000000
      7250        64  CHL1      C11            21.1455821371       23.6595496506       12.0942050000  MEMB      64              0.0000000000
      7251        64  CHL1      H11A           20.0393508542       23.7592181747       12.1196350000  MEMB      64              0.0000000000
      7252        64  CHL1      H11B           21.4706868850       22.7297282638       12.6080750000  MEMB      64              0.0000000000
      7253        64  CHL1      C9             21.8849270010       24.7520878410       13.0147150000  MEMB      64              0.0000000000
      7254        64  CHL1      H9             22.9608163395       24.5858901459       12.7929950000  MEMB      64              0.0000000000
      7255        64  CHL1      C10            21.7424554341       24.6988778285       14.6098250000  MEMB      64              0.0000000000
      7256        64  CHL1      C19            20.2149673493       24.4162579220       14.8764050000  MEMB      64              0.0000000000
      7257        64  CHL1      H19A           19.5648070203       25.1687889983       14.3811250000  MEMB      64              0.0000000000
      7258        64  CHL1      H19B           19.9530356040       23.4167270418       14.4681650000  MEMB      64              0.0000000000
      7259        64  CHL1      H19C           20.0131010570       24.3549525533       15.9671950000  MEMB      64              0.0000000000
      7260        64  CHL1      C1             22.5430097456       23.4851789912       15.1478350000  MEMB      64              0.0000000000
      7261        64  CHL1      H1A            22.1504305036       22.5487166015       14.6970150000  MEMB      64              0.0000000000
      7262        64  CHL1      H1B            23.5838882818       23.6121830436       14.7807150000  MEMB      64              0.0000000000
      7263        64  CHL1      C2             22.4862523374       23.3037143483       16.6410850000  MEMB      64              0.0000000000
      7264        64  CHL1      H2A            23.0082111825       22.4096718126       17.0442850000  MEMB      64              0.0000000000
      7265        64  CHL1      H2B            21.5309572628       23.1584221688       17.1893750000  MEMB      64              0.0000000000
      7266        64  CHL1      C20            21.2677053569       24.8604811165        7.4172550000  MEMB      64              0.0000000000
      7267        64  CHL1      H20            20.2349481885       25.1791879009        7.1600450000  MEMB      64              0.0000000000
      7268        64  CHL1      C21            21.2299514700       23.3305153389        7.3605850000  MEMB      64              0.0000000000
      7269        64  CHL1      H21A           22.1856086364       22.7864392800        7.5187950000  MEMB      64              0.0000000000
      7270        64  CHL1      H21B           20.8851028128       22.9830770392        6.3632450000  MEMB      64              0.0000000000
      7271        64  CHL1      H21C           20.4699420729       22.9139716002        8.0557050000  MEMB      64              0.0000000000
      7272        64  CHL1      C22            22.1407494084       25.4422132187        6.2343850000  MEMB      64              0.0000000000
      7273        64  CHL1      H22A           21.7778805154       26.4601825893        5.9767550000  MEMB      64              0.0000000000
      7274        64  CHL1      H22B           23.2220754112       25.5224360842        6.4765050000  MEMB      64              0.0000000000
      7275        64  CHL1      C23            21.9346658914       24.6035546068        4.9705950000  MEMB      64              0.0000000000
      7276        64  CHL1      H23A           22.4876140456       23.6467083982        5.0846350000  MEMB      64              0.0000000000
      7277        64  CHL1      H23B           20.8381318760       24.4451376568        4.8877850000  MEMB      64              0.0000000000
      7278        64  CHL1      C24            22.3875492926       25.3977818251        3.6681350000  MEMB      64              0.0000000000
      7279        64  CHL1      H24A           21.6959903437       26.2647934428        3.6021750000  MEMB      64              0.0000000000
      7280        64  CHL1      H24B           23.4312683004       25.7523218654        3.8070150000  MEMB      64              0.0000000000
      7281        64  CHL1      C25            22.2752139011       24.4828106147        2.4105750000  MEMB      64              0.0000000000
      7282        64  CHL1      H25            22.8949007020       23.5653960005        2.5036150000  MEMB      64              0.0000000000
      7283        64  CHL1      C26            20.9406517553       23.9869754974        2.0688750000  MEMB      64              0.0000000000
      7284        64  CHL1      H26A           20.5858514596       23.1205077376        2.6669350000  MEMB      64              0.0000000000
      7285        64  CHL1      H26B           20.2716292653       24.8151930366        2.3863450000  MEMB      64              0.0000000000
      7286        64  CHL1      H26C           20.9499683085       23.8282085224        0.9693150000  MEMB      64              0.0000000000
      7287        64  CHL1      C27            22.9327805144       25.2452811715        1.1924650000  MEMB      64              0.0000000000
      7288        64  CHL1      H27A           22.8524177113       24.7100573635        0.2222050000  MEMB      64              0.0000000000
      7289        64  CHL1      H27B           22.3013671504       26.1560042824        1.1135950000  MEMB      64              0.0000000000
      7290        64  CHL1      H27C           24.0021356769       25.4585357587        1.4053450000  MEMB      64              0.0000000000
      7291        65  CHL1      C3             33.6007217482       -3.5679248920       17.3240650000  MEMB      65              0.0000000000
      7292        65  CHL1      H3             34.4952299250       -2.9097211216       17.3546650000  MEMB      65              0.0000000000
      7293        65  CHL1      O3             33.3651820518       -4.0022573680       18.6759350000  MEMB      65              0.0000000000
      7294        65  CHL1      H3'            33.4263129579       -3.1592487172       19.1311450000  MEMB      65              0.0000000000
      7295        65  CHL1      C4             32.3927903209       -2.8541578852       16.7220350000  MEMB      65              0.0000000000
      7296        65  CHL1      H4A            31.4741776074       -3.4751076329       16.7919350000  MEMB      65              0.0000000000
      7297        65  CHL1      H4B            32.1952928023       -2.0138848597       17.4215050000  MEMB      65              0.0000000000
      7298        65  CHL1      C5             32.6107753942       -2.3671659351       15.3009950000  MEMB      65              0.0000000000
      7299        65  CHL1      C6             32.5153981897       -1.0553684472       14.8680750000  MEMB      65              0.0000000000
      7300        65  CHL1      H6             32.3241471258       -0.2481378641       15.5904250000  MEMB      65              0.0000000000
      7301        65  CHL1      C7             32.7834979855       -0.5669781095       13.4830250000  MEMB      65              0.0000000000
      7302        65  CHL1      H7A            31.9949326914        0.1503309828       13.1700550000  MEMB      65              0.0000000000
      7303        65  CHL1      H7B            33.7766949089       -0.1161123717       13.2718450000  MEMB      65              0.0000000000
      7304        65  CHL1      C8             32.6673763919       -1.7476887160       12.5175250000  MEMB      65              0.0000000000
      7305        65  CHL1      H8             31.6012323420       -2.0428574260       12.4148550000  MEMB      65              0.0000000000
      7306        65  CHL1      C14            33.2442712730       -1.4442149895       11.0984550000  MEMB      65              0.0000000000
      7307        65  CHL1      H14            34.3375929154       -1.4420186168       11.2958450000  MEMB      65              0.0000000000
      7308        65  CHL1      C15            33.0680353586       -0.0494616022       10.4461950000  MEMB      65              0.0000000000
      7309        65  CHL1      H15A           32.0247619301        0.3189125456       10.3451750000  MEMB      65              0.0000000000
      7310        65  CHL1      H15B           33.7529010623        0.7424746607       10.8178450000  MEMB      65              0.0000000000
      7311        65  CHL1      C16            33.4098759202       -0.3240488948        8.9906450000  MEMB      65              0.0000000000
      7312        65  CHL1      H16A           32.5961120922       -0.0164475509        8.2996250000  MEMB      65              0.0000000000
      7313        65  CHL1      H16B           34.2659869391        0.3346220654        8.7307750000  MEMB      65              0.0000000000
      7314        65  CHL1      C17            33.7613160599       -1.8699350729        8.8303450000  MEMB      65              0.0000000000
      7315        65  CHL1      H17            34.8589440053       -2.0155240305        8.9216150000  MEMB      65              0.0000000000
      7316        65  CHL1      C13            33.0714062005       -2.5480975458       10.0412450000  MEMB      65              0.0000000000
      7317        65  CHL1      C18            31.4717617494       -2.6487070759        9.7566850000  MEMB      65              0.0000000000
      7318        65  CHL1      H18A           30.9235507922       -3.0585556556       10.6317850000  MEMB      65              0.0000000000
      7319        65  CHL1      H18B           31.0761358773       -1.6361307885        9.5275750000  MEMB      65              0.0000000000
      7320        65  CHL1      H18C           31.2407289466       -3.3086970862        8.8933450000  MEMB      65              0.0000000000
      7321        65  CHL1      C12            33.7313716163       -3.8869840454       10.4677150000  MEMB      65              0.0000000000
      7322        65  CHL1      H12A           33.5471580671       -4.6926384587        9.7252050000  MEMB      65              0.0000000000
      7323        65  CHL1      H12B           34.8077594418       -3.6216501734       10.3949350000  MEMB      65              0.0000000000
      7324        65  CHL1      C11            33.1869618272       -4.2209772574       11.8795050000  MEMB      65              0.0000000000
      7325        65  CHL1      H11A           32.1427437118       -4.5136545428       11.6381450000  MEMB      65              0.0000000000
      7326        65  CHL1      H11B           33.7207006096       -5.1725093638       12.0893250000  MEMB      65              0.0000000000
      7327        65  CHL1      C9             33.3398445644       -3.0902055979       12.9426450000  MEMB      65              0.0000000000
      7328        65  CHL1      H9             34.4103883358       -2.8037990651       13.0216050000  MEMB      65              0.0000000000
      7329        65  CHL1      C10            32.9202855810       -3.5527853120       14.4111550000  MEMB      65              0.0000000000
      7330        65  CHL1      C19            31.6920142484       -4.5126767149       14.3302850000  MEMB      65              0.0000000000
      7331        65  CHL1      H19A           31.9409471916       -5.4793948831       13.8426350000  MEMB      65              0.0000000000
      7332        65  CHL1      H19B           31.2389383727       -4.7966014262       15.3041550000  MEMB      65              0.0000000000
      7333        65  CHL1      H19C           30.8954430446       -4.0218369812       13.7312250000  MEMB      65              0.0000000000
      7334        65  CHL1      C1             34.0847674789       -4.3952932230       14.9526850000  MEMB      65              0.0000000000
      7335        65  CHL1      H1A            34.3789037014       -5.2351099600       14.2874750000  MEMB      65              0.0000000000
      7336        65  CHL1      H1B            34.9278468085       -3.6717489125       14.9575150000  MEMB      65              0.0000000000
      7337        65  CHL1      C2             33.8986372493       -4.8171479108       16.4660450000  MEMB      65              0.0000000000
      7338        65  CHL1      H2A            34.6865117643       -5.4230623541       16.9624650000  MEMB      65              0.0000000000
      7339        65  CHL1      H2B            33.0261079064       -5.5000749144       16.5475050000  MEMB      65              0.0000000000
      7340        65  CHL1      C20            33.5090536697       -2.3380865969        7.3091550000  MEMB      65              0.0000000000
      7341        65  CHL1      H20            32.4243417961       -2.3470942236        7.0690750000  MEMB      65              0.0000000000
      7342        65  CHL1      C21            33.8819182297       -3.8388620943        7.2432550000  MEMB      65              0.0000000000
      7343        65  CHL1      H21A           33.0574218137       -4.4669354258        7.6433250000  MEMB      65              0.0000000000
      7344        65  CHL1      H21B           34.8087243280       -3.9664674337        7.8424750000  MEMB      65              0.0000000000
      7345        65  CHL1      H21C           34.0890120624       -4.1549370747        6.1984950000  MEMB      65              0.0000000000
      7346        65  CHL1      C22            34.2901109453       -1.5835934105        6.2291350000  MEMB      65              0.0000000000
      7347        65  CHL1      H22A           34.2488629218       -0.5036496402        6.4867150000  MEMB      65              0.0000000000
      7348        65  CHL1      H22B           35.3626414373       -1.8667412037        6.1672050000  MEMB      65              0.0000000000
      7349        65  CHL1      C23            33.6090003898       -1.7210329185        4.8748450000  MEMB      65              0.0000000000
      7350        65  CHL1      H23A           33.7737104005       -2.7464947446        4.4803550000  MEMB      65              0.0000000000
      7351        65  CHL1      H23B           32.5124081700       -1.5429241551        4.8844250000  MEMB      65              0.0000000000
      7352        65  CHL1      C24            34.2427960959       -0.7426995217        3.8066150000  MEMB      65              0.0000000000
      7353        65  CHL1      H24A           34.3989712827        0.2315924990        4.3171750000  MEMB      65              0.0000000000
      7354        65  CHL1      H24B           35.1664396506       -1.2061732431        3.3987050000  MEMB      65              0.0000000000
      7355        65  CHL1      C25            33.2718836867       -0.5745765683        2.5699150000  MEMB      65              0.0000000000
      7356        65  CHL1      H25            32.3369854700       -0.1247329270        2.9673250000  MEMB      65              0.0000000000
      7357        65  CHL1      C26            33.8953225730        0.3118600322        1.5122350000  MEMB      65              0.0000000000
      7358        65  CHL1      H26A           34.1958546624        1.2641421198        1.9992350000  MEMB      65              0.0000000000
      7359        65  CHL1      H26B           34.7696526067       -0.1737953629        1.0284850000  MEMB      65              0.0000000000
      7360        65  CHL1      H26C           33.0612137231        0.6316658051        0.8517050000  MEMB      65              0.0000000000
      7361        65  CHL1      C27            32.9022354152       -1.9405443790        2.0151350000  MEMB      65              0.0000000000
      7362        65  CHL1      H27A           32.4122832703       -1.9434936429        1.0180050000  MEMB      65              0.0000000000
      7363        65  CHL1      H27B           33.8596102252       -2.4831903482        1.8625350000  MEMB      65              0.0000000000
      7364        65  CHL1      H27C           32.2735453637       -2.5334493665        2.7133650000  MEMB      65              0.0000000000
      7365        66  SAPS      N              31.9372427724        9.4393746251       21.8061278233  MEMB      66              0.0000000000
      7366        66  SAPS      HN1            32.0946297330        8.6720348006       21.1220089810  MEMB      66              0.0000000000
      7367        66  SAPS      HN2            32.5016472877        9.3363165161       22.6735531952  MEMB      66              0.0000000000
      7368        66  SAPS      HN3            30.9133872324        9.5641984748       21.9393151241  MEMB      66              0.0000000000
      7369        66  SAPS      C12            32.4530760690       10.6729592663       21.1573746685  MEMB      66              0.0000000000
      7370        66  SAPS      H12A           32.1925272913       11.4247986346       21.8876156508  MEMB      66              0.0000000000
      7371        66  SAPS      C13            33.9889038489       10.6171990114       20.8592842113  MEMB      66              0.0000000000
      7372        66  SAPS      O13A           34.7093046912        9.6604119339       21.3431894433  MEMB      66              0.0000000000
      7373        66  SAPS      O13B           34.5154873161       11.7303544058       20.6347666910  MEMB      66              0.0000000000
      7374        66  SAPS      C11            31.7029796233       10.9951981330       19.8542086154  MEMB      66              0.0000000000
      7375        66  SAPS      H11A           31.3147593705       10.0240153805       19.4794953563  MEMB      66              0.0000000000
      7376        66  SAPS      H11B           32.2868355799       11.4119503000       19.0058273271  MEMB      66              0.0000000000
      7377        66  SAPS      P              29.6489713073       12.3823810753       18.8462559672  MEMB      66              0.0000000000
      7378        66  SAPS      O13            29.2260736561       11.1929692200       18.0727431197  MEMB      66              0.0000000000
      7379        66  SAPS      O14            28.5517387322       13.1082703585       19.5057640674  MEMB      66              0.0000000000
      7380        66  SAPS      O12            30.6856571812       11.9484521423       20.0136518947  MEMB      66              0.0000000000
      7381        66  SAPS      O11            30.3658026279       13.3458789720       17.9066334694  MEMB      66              0.0000000000
      7382        66  SAPS      C1             30.9066304466       14.5834497703       18.3081552910  MEMB      66              0.0000000000
      7383        66  SAPS      HA             30.0820515520       15.3275617588       18.3343780984  MEMB      66              0.0000000000
      7384        66  SAPS      HB             31.3735167716       14.5229235738       19.3144727331  MEMB      66              0.0000000000
      7385        66  SAPS      C2             32.0940902114       15.0399212228       17.4119906601  MEMB      66              0.0000000000
      7386        66  SAPS      HS             32.3842324701       16.0417805745       17.7946347027  MEMB      66              0.0000000000
      7387        66  SAPS      O21            31.6449540659       15.0492358985       16.0715207367  MEMB      66              0.0000000000
      7388        66  SAPS      C21            32.1685591489       16.0687799269       15.3521279533  MEMB      66              0.0000000000
      7389        66  SAPS      O22            33.0266879138       16.8315525035       15.7207664787  MEMB      66              0.0000000000
      7390        66  SAPS      C22            31.5833642856       16.0501708348       13.9459294895  MEMB      66              0.0000000000
      7391        66  SAPS      H2R            31.8665154869       15.1513263385       13.3575204583  MEMB      66              0.0000000000
      7392        66  SAPS      H2S            30.4889829753       16.0844215892       14.1342840172  MEMB      66              0.0000000000
      7393        66  SAPS      C3             33.3756636274       14.1671973924       17.4599619198  MEMB      66              0.0000000000
      7394        66  SAPS      HX             33.7565535985       14.2184641752       18.5023704977  MEMB      66              0.0000000000
      7395        66  SAPS      HY             34.1630787402       14.6631985337       16.8531001722  MEMB      66              0.0000000000
      7396        66  SAPS      O31            33.1078635174       12.8493014444       16.9827155577  MEMB      66              0.0000000000
      7397        66  SAPS      C31            34.1793549805       12.0376986262       16.8667871507  MEMB      66              0.0000000000
      7398        66  SAPS      O32            35.2362629863       12.3606100233       17.2646140154  MEMB      66              0.0000000000
      7399        66  SAPS      C32            33.8442578043       10.8031426588       16.1326127633  MEMB      66              0.0000000000
      7400        66  SAPS      H2X            32.8260827035       10.7396186284       15.6926068742  MEMB      66              0.0000000000
      7401        66  SAPS      H2Y            33.8830590113        9.8377331184       16.6810649849  MEMB      66              0.0000000000
      7402        66  SAPS      C23            31.9880523059       17.2595281193       13.0128543298  MEMB      66              0.0000000000
      7403        66  SAPS      H3R            31.8958912224       18.1730802800       13.6383537625  MEMB      66              0.0000000000
      7404        66  SAPS      H3S            31.2127441051       17.3683215162       12.2245760559  MEMB      66              0.0000000000
      7405        66  SAPS      C24            33.3605291930       17.3432330479       12.3780233649  MEMB      66              0.0000000000
      7406        66  SAPS      H4R            34.1740045111       17.4208835077       13.1307181968  MEMB      66              0.0000000000
      7407        66  SAPS      H4S            33.2410998816       18.2356846077       11.7271880925  MEMB      66              0.0000000000
      7408        66  SAPS      C25            33.7141604405       16.1623047775       11.4130113961  MEMB      66              0.0000000000
      7409        66  SAPS      H5R            34.0233637030       15.1885180590       11.8206057053  MEMB      66              0.0000000000
      7410        66  SAPS      C26            33.6491532959       16.1222119057       10.0562860117  MEMB      66              0.0000000000
      7411        66  SAPS      H6R            34.0112603686       15.2022448042        9.5740624959  MEMB      66              0.0000000000
      7412        66  SAPS      C27            33.2109829789       17.1498812698        9.0423206667  MEMB      66              0.0000000000
      7413        66  SAPS      H7R            33.6948622541       16.9653420243        8.0594024701  MEMB      66              0.0000000000
      7414        66  SAPS      H7S            33.5847166440       18.1297659519        9.4090220539  MEMB      66              0.0000000000
      7415        66  SAPS      C28            31.7124155898       17.2869659532        8.9125617893  MEMB      66              0.0000000000
      7416        66  SAPS      H8R            31.1106955365       17.7003682828        9.7353814119  MEMB      66              0.0000000000
      7417        66  SAPS      C29            30.9060494457       16.9333984633        7.8719858963  MEMB      66              0.0000000000
      7418        66  SAPS      H9R            29.8189389906       16.9840060827        8.0320796320  MEMB      66              0.0000000000
      7419        66  SAPS      C210           31.2174883697       16.2711964485        6.5767279221  MEMB      66              0.0000000000
      7420        66  SAPS      H10R           30.8548088979       15.2250998802        6.6687420749  MEMB      66              0.0000000000
      7421        66  SAPS      H10S           32.3051312242       16.3303350597        6.3579656137  MEMB      66              0.0000000000
      7422        66  SAPS      C211           30.6499582049       17.0557011557        5.4083573303  MEMB      66              0.0000000000
      7423        66  SAPS      H11R           31.1345784030       18.0060008442        5.1398917316  MEMB      66              0.0000000000
      7424        66  SAPS      C212           29.7047381475       16.5151209497        4.6099623380  MEMB      66              0.0000000000
      7425        66  SAPS      H12R           29.4197610365       17.1181915727        3.7352665803  MEMB      66              0.0000000000
      7426        66  SAPS      C213           28.9615269551       15.1447116396        4.6213887993  MEMB      66              0.0000000000
      7427        66  SAPS      H13R           29.5956163734       14.3324843383        5.0367659655  MEMB      66              0.0000000000
      7428        66  SAPS      H13S           28.8322653768       14.7659164824        3.5849881512  MEMB      66              0.0000000000
      7429        66  SAPS      C214           27.6032038239       15.0649929048        5.3045653965  MEMB      66              0.0000000000
      7430        66  SAPS      H14R           27.5327008696       15.8695950471        6.0513214089  MEMB      66              0.0000000000
      7431        66  SAPS      C215           26.6482365069       14.1032921338        5.2460917794  MEMB      66              0.0000000000
      7432        66  SAPS      H15R           25.7145496026       14.2228864796        5.8152368180  MEMB      66              0.0000000000
      7433        66  SAPS      C216           26.7228124537       12.8342917896        4.4452028762  MEMB      66              0.0000000000
      7434        66  SAPS      H16R           26.0017396287       12.1314153998        4.9146056094  MEMB      66              0.0000000000
      7435        66  SAPS      H16S           27.7630932013       12.4473974851        4.4946976039  MEMB      66              0.0000000000
      7436        66  SAPS      C217           26.2155640785       12.9303042033        2.9853994749  MEMB      66              0.0000000000
      7437        66  SAPS      H17R           26.8163611904       13.7483184166        2.5334953560  MEMB      66              0.0000000000
      7438        66  SAPS      H17S           25.2394372695       13.4599249322        2.9537959042  MEMB      66              0.0000000000
      7439        66  SAPS      C218           25.9621097940       11.6152894999        2.2644851388  MEMB      66              0.0000000000
      7440        66  SAPS      H18R           25.5830794245       11.8727410732        1.2523702846  MEMB      66              0.0000000000
      7441        66  SAPS      H18S           25.1154592503       11.0277856720        2.6796287022  MEMB      66              0.0000000000
      7442        66  SAPS      C219           27.1860678710       10.6264177370        2.1182390494  MEMB      66              0.0000000000
      7443        66  SAPS      H19R           27.3544639047       10.1967898671        3.1288745838  MEMB      66              0.0000000000
      7444        66  SAPS      H19S           27.9996196540       11.3060110276        1.7856628837  MEMB      66              0.0000000000
      7445        66  SAPS      C220           27.0646485778        9.5648149030        1.0044081919  MEMB      66              0.0000000000
      7446        66  SAPS      H20R           26.5331399157        8.6519063904        1.3485248634  MEMB      66              0.0000000000
      7447        66  SAPS      H20S           28.0633678068        9.3359476637        0.5748718973  MEMB      66              0.0000000000
      7448        66  SAPS      H20T           26.4459815031        9.9010647858        0.1450425792  MEMB      66              0.0000000000
      7449        66  SAPS      C33            34.7437466860       10.7662365995       14.8813429456  MEMB      66              0.0000000000
      7450        66  SAPS      H3X            34.4388318192        9.9482185496       14.1941790074  MEMB      66              0.0000000000
      7451        66  SAPS      H3Y            35.7453575796       10.4190549875       15.2138511095  MEMB      66              0.0000000000
      7452        66  SAPS      C34            34.9988581828       12.0717581002       14.1193662909  MEMB      66              0.0000000000
      7453        66  SAPS      H4X            35.7955978927       11.7998327235       13.3943951552  MEMB      66              0.0000000000
      7454        66  SAPS      H4Y            35.3002979455       12.8757360245       14.8244014066  MEMB      66              0.0000000000
      7455        66  SAPS      C35            33.8493077020       12.5552622361       13.2224327290  MEMB      66              0.0000000000
      7456        66  SAPS      H5X            34.0813298307       13.6024417666       12.9327746112  MEMB      66              0.0000000000
      7457        66  SAPS      H5Y            32.8734099873       12.5635498876       13.7533532229  MEMB      66              0.0000000000
      7458        66  SAPS      C36            33.6565441692       11.7999828622       11.8633633805  MEMB      66              0.0000000000
      7459        66  SAPS      H6X            32.8667620062       11.0274475485       11.9806416518  MEMB      66              0.0000000000
      7460        66  SAPS      H6Y            34.6172832185       11.3282023251       11.5654967542  MEMB      66              0.0000000000
      7461        66  SAPS      C37            33.0740750245       12.6697124973       10.7306344643  MEMB      66              0.0000000000
      7462        66  SAPS      H7X            33.9474122771       13.1934614977       10.2864614133  MEMB      66              0.0000000000
      7463        66  SAPS      H7Y            32.4529667717       13.4840041927       11.1613020841  MEMB      66              0.0000000000
      7464        66  SAPS      C38            32.3238276084       11.9891212466        9.6626889054  MEMB      66              0.0000000000
      7465        66  SAPS      H8X            31.2935143112       11.7780630948       10.0207815795  MEMB      66              0.0000000000
      7466        66  SAPS      H8Y            32.9448355999       11.0813090394        9.5060141831  MEMB      66              0.0000000000
      7467        66  SAPS      C39            32.1124648615       12.7782582798        8.3585670112  MEMB      66              0.0000000000
      7468        66  SAPS      H9X            31.5602329653       13.7193129954        8.5677964722  MEMB      66              0.0000000000
      7469        66  SAPS      H9Y            31.5841575158       12.1454031024        7.6137808823  MEMB      66              0.0000000000
      7470        66  SAPS      C310           33.4160609118       12.9152595795        7.6164333085  MEMB      66              0.0000000000
      7471        66  SAPS      H10X           34.2129376382       13.2858748424        8.2961040154  MEMB      66              0.0000000000
      7472        66  SAPS      H10Y           33.3238954971       13.7023085428        6.8377290663  MEMB      66              0.0000000000
      7473        66  SAPS      C311           34.0522980113       11.7329897198        6.8483322736  MEMB      66              0.0000000000
      7474        66  SAPS      H11X           34.2527818607       10.9284495988        7.5878202780  MEMB      66              0.0000000000
      7475        66  SAPS      H11Y           35.0212657408       11.9812326549        6.3648054925  MEMB      66              0.0000000000
      7476        66  SAPS      C312           33.0948209352       11.1773763700        5.7847605844  MEMB      66              0.0000000000
      7477        66  SAPS      H12X           32.2909537781       10.6070532058        6.2974497559  MEMB      66              0.0000000000
      7478        66  SAPS      H12Y           33.7266569961       10.3544761926        5.3873443711  MEMB      66              0.0000000000
      7479        66  SAPS      C313           32.6947873237       12.2251353639        4.7787702495  MEMB      66              0.0000000000
      7480        66  SAPS      H13X           33.6797100554       12.6389892553        4.4738546827  MEMB      66              0.0000000000
      7481        66  SAPS      H13Y           32.2020678875       13.1434229211        5.1638628745  MEMB      66              0.0000000000
      7482        66  SAPS      C314           31.8838573697       11.6755424693        3.5644448762  MEMB      66              0.0000000000
      7483        66  SAPS      H14X           30.8767046720       11.4086958507        3.9501356346  MEMB      66              0.0000000000
      7484        66  SAPS      H14Y           32.3728671272       10.7381312656        3.2231964227  MEMB      66              0.0000000000
      7485        66  SAPS      C315           31.9243575583       12.6675901697        2.3635972387  MEMB      66              0.0000000000
      7486        66  SAPS      H15X           31.0216363269       12.5071335369        1.7361653658  MEMB      66              0.0000000000
      7487        66  SAPS      H15Y           32.8562175756       12.4656804449        1.7933423075  MEMB      66              0.0000000000
      7488        66  SAPS      C316           31.9711348758       14.1767518439        2.7149816140  MEMB      66              0.0000000000
      7489        66  SAPS      H16X           32.9848370652       14.3931616638        3.1148521378  MEMB      66              0.0000000000
      7490        66  SAPS      H16Y           31.1938112728       14.3874251654        3.4802956426  MEMB      66              0.0000000000
      7491        66  SAPS      C317           31.6605151901       15.1054768138        1.4989752696  MEMB      66              0.0000000000
      7492        66  SAPS      H17X           32.3238985993       14.7940904335        0.6639409569  MEMB      66              0.0000000000
      7493        66  SAPS      H17Y           32.0583990761       16.0677014261        1.8864454942  MEMB      66              0.0000000000
      7494        66  SAPS      C318           30.1916777802       15.2202831899        1.0248483188  MEMB      66              0.0000000000
      7495        66  SAPS      H18X           29.6324431925       15.8203030193        1.7742172781  MEMB      66              0.0000000000
      7496        66  SAPS      H18Y           29.8868940320       14.1574717772        0.9159458291  MEMB      66              0.0000000000
      7497        66  SAPS      H18Z           30.1951668776       15.8839362751        0.1338520241  MEMB      66              0.0000000000
      7498        67  CHL1      C3            -20.1690787031       27.3185413623       17.3314500000  MEMB      67              0.0000000000
      7499        67  CHL1      H3            -20.3073422716       26.2370152167       17.1181100000  MEMB      67              0.0000000000
      7500        67  CHL1      O3            -19.8183364969       27.5376896377       18.6685500000  MEMB      67              0.0000000000
      7501        67  CHL1      H3'           -19.2299821504       26.8112824643       18.8871200000  MEMB      67              0.0000000000
      7502        67  CHL1      C4            -18.9480709349       27.7426090942       16.4478700000  MEMB      67              0.0000000000
      7503        67  CHL1      H4A           -18.6963616174       28.7940955438       16.7035100000  MEMB      67              0.0000000000
      7504        67  CHL1      H4B           -18.0684144962       27.1672019684       16.8076200000  MEMB      67              0.0000000000
      7505        67  CHL1      C5            -19.2988677135       27.5751853964       14.9983600000  MEMB      67              0.0000000000
      7506        67  CHL1      C6            -18.6296424621       26.7640817696       14.2273900000  MEMB      67              0.0000000000
      7507        67  CHL1      H6            -17.8023241498       26.2083104867       14.6928600000  MEMB      67              0.0000000000
      7508        67  CHL1      C7            -18.7731639784       26.7337074506       12.7236500000  MEMB      67              0.0000000000
      7509        67  CHL1      H7A           -17.8406536540       26.6340859829       12.1280000000  MEMB      67              0.0000000000
      7510        67  CHL1      H7B           -19.3949910248       25.8346525847       12.5252900000  MEMB      67              0.0000000000
      7511        67  CHL1      C8            -19.6019082103       27.7890308982       12.0720800000  MEMB      67              0.0000000000
      7512        67  CHL1      H8            -19.0580461985       28.7576386871       12.0905000000  MEMB      67              0.0000000000
      7513        67  CHL1      C14           -19.9850845706       27.3309620594       10.6496900000  MEMB      67              0.0000000000
      7514        67  CHL1      H14           -20.5267789648       26.3657440690       10.7458700000  MEMB      67              0.0000000000
      7515        67  CHL1      C15           -18.9958444470       27.0354836317        9.5979800000  MEMB      67              0.0000000000
      7516        67  CHL1      H15A          -18.2408740295       27.8503709771        9.5805700000  MEMB      67              0.0000000000
      7517        67  CHL1      H15B          -18.4372491480       26.1110875001        9.8583200000  MEMB      67              0.0000000000
      7518        67  CHL1      C16           -19.7402910453       27.0191823179        8.2497400000  MEMB      67              0.0000000000
      7519        67  CHL1      H16A          -19.1746611779       27.6268124523        7.5113900000  MEMB      67              0.0000000000
      7520        67  CHL1      H16B          -19.7932319961       26.0367472506        7.7336700000  MEMB      67              0.0000000000
      7521        67  CHL1      C17           -21.2053613362       27.4866648954        8.6096500000  MEMB      67              0.0000000000
      7522        67  CHL1      H17           -21.7920211801       26.5680508279        8.8248100000  MEMB      67              0.0000000000
      7523        67  CHL1      C13           -21.0183642820       28.2961534012        9.9432900000  MEMB      67              0.0000000000
      7524        67  CHL1      C18           -20.3943124047       29.6688000000        9.5911700000  MEMB      67              0.0000000000
      7525        67  CHL1      H18A          -20.2183658994       30.2156243237       10.5421400000  MEMB      67              0.0000000000
      7526        67  CHL1      H18B          -19.3938449257       29.6198577899        9.1105600000  MEMB      67              0.0000000000
      7527        67  CHL1      H18C          -21.0432053466       30.2858730713        8.9335400000  MEMB      67              0.0000000000
      7528        67  CHL1      C12           -22.2671789134       28.4434701584       10.9060700000  MEMB      67              0.0000000000
      7529        67  CHL1      H12A          -23.0883550092       28.9981354234       10.4037400000  MEMB      67              0.0000000000
      7530        67  CHL1      H12B          -22.6791680678       27.4203707988       11.0397000000  MEMB      67              0.0000000000
      7531        67  CHL1      C11           -21.8937003309       28.9013275613       12.3211800000  MEMB      67              0.0000000000
      7532        67  CHL1      H11A          -21.4974782174       29.9284057171       12.1713300000  MEMB      67              0.0000000000
      7533        67  CHL1      H11B          -22.7575455057       28.9359848140       13.0189500000  MEMB      67              0.0000000000
      7534        67  CHL1      C9            -20.8413050663       27.9747616985       12.9200500000  MEMB      67              0.0000000000
      7535        67  CHL1      H9            -21.3025672829       26.9675480511       13.0042800000  MEMB      67              0.0000000000
      7536        67  CHL1      C10           -20.4381634625       28.3772661966       14.4400700000  MEMB      67              0.0000000000
      7537        67  CHL1      C19           -20.0002260385       29.8301083558       14.4897900000  MEMB      67              0.0000000000
      7538        67  CHL1      H19A          -19.0673427243       29.9339094554       13.8954300000  MEMB      67              0.0000000000
      7539        67  CHL1      H19B          -20.7876400203       30.5319838320       14.1409600000  MEMB      67              0.0000000000
      7540        67  CHL1      H19C          -19.7734246446       30.1254994239       15.5365100000  MEMB      67              0.0000000000
      7541        67  CHL1      C1            -21.6587479669       28.1878307416       15.3767300000  MEMB      67              0.0000000000
      7542        67  CHL1      H1A           -22.4941964727       28.8945906335       15.1848000000  MEMB      67              0.0000000000
      7543        67  CHL1      H1B           -22.1271024670       27.1994795016       15.1814700000  MEMB      67              0.0000000000
      7544        67  CHL1      C2            -21.3524710389       28.1872972308       16.8792500000  MEMB      67              0.0000000000
      7545        67  CHL1      H2A           -22.3417950045       27.9017478783       17.2963900000  MEMB      67              0.0000000000
      7546        67  CHL1      H2B           -21.0810064842       29.2055362458       17.2311200000  MEMB      67              0.0000000000
      7547        67  CHL1      C20           -21.9920804520       28.2470230806        7.4250400000  MEMB      67              0.0000000000
      7548        67  CHL1      H20           -21.3808981716       29.1534464917        7.2271200000  MEMB      67              0.0000000000
      7549        67  CHL1      C21           -23.3782193897       28.6397060192        7.8420400000  MEMB      67              0.0000000000
      7550        67  CHL1      H21A          -23.2725798092       29.5815462590        8.4217800000  MEMB      67              0.0000000000
      7551        67  CHL1      H21B          -23.8388946100       27.8342199166        8.4530100000  MEMB      67              0.0000000000
      7552        67  CHL1      H21C          -24.1216967182       28.6731684293        7.0171600000  MEMB      67              0.0000000000
      7553        67  CHL1      C22           -22.0341710737       27.5155005823        5.9898600000  MEMB      67              0.0000000000
      7554        67  CHL1      H22A          -21.0398440281       27.0523626278        5.8134000000  MEMB      67              0.0000000000
      7555        67  CHL1      H22B          -22.6942558195       26.6246887337        6.0609900000  MEMB      67              0.0000000000
      7556        67  CHL1      C23           -22.3828805117       28.3913503142        4.8073300000  MEMB      67              0.0000000000
      7557        67  CHL1      H23A          -23.3829547799       28.8570492710        4.9389000000  MEMB      67              0.0000000000
      7558        67  CHL1      H23B          -21.6078471697       29.1873620387        4.8113200000  MEMB      67              0.0000000000
      7559        67  CHL1      C24           -22.3204609861       27.6572767361        3.4808900000  MEMB      67              0.0000000000
      7560        67  CHL1      H24A          -21.3484752795       27.1415192465        3.3274000000  MEMB      67              0.0000000000
      7561        67  CHL1      H24B          -22.9759882291       26.7676631227        3.5957600000  MEMB      67              0.0000000000
      7562        67  CHL1      C25           -22.6110455055       28.4606584120        2.2576500000  MEMB      67              0.0000000000
      7563        67  CHL1      H25           -21.8883025041       29.3044373625        2.2558500000  MEMB      67              0.0000000000
      7564        67  CHL1      C26           -22.5050203742       27.6623210178        0.9312000000  MEMB      67              0.0000000000
      7565        67  CHL1      H26A          -22.8819294844       28.2434769475        0.0625700000  MEMB      67              0.0000000000
      7566        67  CHL1      H26B          -21.4718064375       27.3051356126        0.7331900000  MEMB      67              0.0000000000
      7567        67  CHL1      H26C          -23.0855302755       26.7188834614        1.0163700000  MEMB      67              0.0000000000
      7568        67  CHL1      C27           -24.1497963166       28.9101389164        2.2345300000  MEMB      67              0.0000000000
      7569        67  CHL1      H27A          -24.8855243452       28.0804044513        2.3021800000  MEMB      67              0.0000000000
      7570        67  CHL1      H27B          -24.3891752752       29.4118463781        3.1964600000  MEMB      67              0.0000000000
      7571        67  CHL1      H27C          -24.4160384399       29.5969937793        1.4028600000  MEMB      67              0.0000000000
      7572        68  OSM       N             -30.6580260145      -19.3200750984       19.9030610677  MEMB      68              0.0000000000
      7573        68  OSM       C15           -30.7692759196      -20.7050543103       19.3384803375  MEMB      68              0.0000000000
      7574        68  OSM       H15A          -30.2109841750      -20.7681903782       18.4161333210  MEMB      68              0.0000000000
      7575        68  OSM       H15B          -31.8028172260      -20.9685430654       19.1688741465  MEMB      68              0.0000000000
      7576        68  OSM       H15C          -30.2556436828      -21.3349013382       20.0497290247  MEMB      68              0.0000000000
      7577        68  OSM       C14           -29.1646062517      -18.9148112727       19.9289963982  MEMB      68              0.0000000000
      7578        68  OSM       H14A          -28.7913236358      -19.7441842724       20.5114056217  MEMB      68              0.0000000000
      7579        68  OSM       H14B          -28.9748903424      -17.9391952656       20.3515850578  MEMB      68              0.0000000000
      7580        68  OSM       H14C          -28.8399551759      -18.9338808791       18.8991236738  MEMB      68              0.0000000000
      7581        68  OSM       C13           -31.4285991011      -18.4174854695       18.8991044283  MEMB      68              0.0000000000
      7582        68  OSM       H13A          -30.8397948106      -18.2477476319       18.0097797505  MEMB      68              0.0000000000
      7583        68  OSM       H13B          -31.6326419509      -17.5066692130       19.4424095170  MEMB      68              0.0000000000
      7584        68  OSM       H13C          -32.4049748306      -18.8626193139       18.7768494649  MEMB      68              0.0000000000
      7585        68  OSM       C12           -31.2804959521      -19.1641423707       21.2794209061  MEMB      68              0.0000000000
      7586        68  OSM       H12A          -30.5918422999      -19.5306854901       22.0262824912  MEMB      68              0.0000000000
      7587        68  OSM       H12B          -32.1985125148      -19.7266161686       21.3646784808  MEMB      68              0.0000000000
      7588        68  OSM       C11           -31.5245724935      -17.7566061857       21.8349718255  MEMB      68              0.0000000000
      7589        68  OSM       H11A          -32.1247128487      -17.9132940245       22.7567100870  MEMB      68              0.0000000000
      7590        68  OSM       H11B          -32.2800607091      -17.1617016814       21.2785123455  MEMB      68              0.0000000000
      7591        68  OSM       P             -30.2478229206      -15.5337274277       22.0409703096  MEMB      68              0.0000000000
      7592        68  OSM       O13           -31.2798916386      -14.8993131596       22.8036696804  MEMB      68              0.0000000000
      7593        68  OSM       O14           -28.8848299177      -15.0831850183       22.1906020066  MEMB      68              0.0000000000
      7594        68  OSM       O11           -30.7054013147      -15.3695131296       20.5566147278  MEMB      68              0.0000000000
      7595        68  OSM       O12           -30.3226383380      -16.9955936739       22.2241083267  MEMB      68              0.0000000000
      7596        68  OSM       C1S           -29.8146195081      -14.7204071380       19.6651372134  MEMB      68              0.0000000000
      7597        68  OSM       H1S           -28.8158229791      -15.1969629756       19.7632247163  MEMB      68              0.0000000000
      7598        68  OSM       H1T           -29.6480263822      -13.6483639872       19.9044927306  MEMB      68              0.0000000000
      7599        68  OSM       NF            -28.9815072312      -14.4508680876       17.3446830743  MEMB      68              0.0000000000
      7600        68  OSM       HNF           -29.0442818426      -13.5054348436       17.0344825745  MEMB      68              0.0000000000
      7601        68  OSM       C2S           -30.1862109105      -14.8243658006       18.0913961784  MEMB      68              0.0000000000
      7602        68  OSM       H2S           -30.4671624275      -15.8681728085       17.8347756171  MEMB      68              0.0000000000
      7603        68  OSM       C3S           -31.3165622219      -13.8801093097       17.8371851433  MEMB      68              0.0000000000
      7604        68  OSM       H3S           -31.0920023217      -12.8143043841       18.0561677244  MEMB      68              0.0000000000
      7605        68  OSM       O3            -32.4609683549      -14.2345392428       18.6263933123  MEMB      68              0.0000000000
      7606        68  OSM       HO3           -32.1516321467      -14.8887724773       19.2571785447  MEMB      68              0.0000000000
      7607        68  OSM       C4S           -31.6861079931      -13.9640335960       16.4444645565  MEMB      68              0.0000000000
      7608        68  OSM       H4S           -31.8271360269      -14.9777200028       16.0412884791  MEMB      68              0.0000000000
      7609        68  OSM       C5S           -31.8514305325      -12.8997631625       15.6400309307  MEMB      68              0.0000000000
      7610        68  OSM       H5S           -31.6033373220      -11.9264657419       16.0885188155  MEMB      68              0.0000000000
      7611        68  OSM       C6S           -32.2886235512      -12.7539456330       14.2199043728  MEMB      68              0.0000000000
      7612        68  OSM       H6S           -31.5467938121      -12.1532910977       13.6513765381  MEMB      68              0.0000000000
      7613        68  OSM       H6T           -33.2632237066      -12.2449549593       14.0605179787  MEMB      68              0.0000000000
      7614        68  OSM       C7S           -32.4714125253      -14.0712536565       13.4528672919  MEMB      68              0.0000000000
      7615        68  OSM       H7S           -33.2340199855      -14.7053540422       13.9535346423  MEMB      68              0.0000000000
      7616        68  OSM       H7T           -31.4771434474      -14.5583556494       13.3607714899  MEMB      68              0.0000000000
      7617        68  OSM       C8S           -33.0383435404      -13.9319100692       11.9701120656  MEMB      68              0.0000000000
      7618        68  OSM       H8S           -33.7652899870      -13.0991221651       11.8590512841  MEMB      68              0.0000000000
      7619        68  OSM       H8T           -33.5245454470      -14.8760964266       11.6438592650  MEMB      68              0.0000000000
      7620        68  OSM       C9S           -31.8819561514      -13.5278493625       11.0818582272  MEMB      68              0.0000000000
      7621        68  OSM       H9S           -31.0360895516      -14.2174426260       11.2899251649  MEMB      68              0.0000000000
      7622        68  OSM       H9T           -31.5958332994      -12.4904420187       11.3579759036  MEMB      68              0.0000000000
      7623        68  OSM       C10S          -32.2005730700      -13.5645119987        9.5819865413  MEMB      68              0.0000000000
      7624        68  OSM       H10S          -31.3966936298      -13.0068775943        9.0555435045  MEMB      68              0.0000000000
      7625        68  OSM       H10T          -33.1322285040      -12.9810343353        9.4210729233  MEMB      68              0.0000000000
      7626        68  OSM       C11S          -32.1683211719      -14.9887045498        8.9876537281  MEMB      68              0.0000000000
      7627        68  OSM       H11S          -33.0510088808      -15.6195627929        9.2268218788  MEMB      68              0.0000000000
      7628        68  OSM       H11T          -31.2958874519      -15.5134390206        9.4324392523  MEMB      68              0.0000000000
      7629        68  OSM       C12S          -31.9218094804      -15.0605218941        7.4556604995  MEMB      68              0.0000000000
      7630        68  OSM       H12S          -32.8210542174      -14.7415717697        6.8864942632  MEMB      68              0.0000000000
      7631        68  OSM       H12T          -31.8975356012      -16.1534924538        7.2578047322  MEMB      68              0.0000000000
      7632        68  OSM       C13S          -30.6197642120      -14.5247612218        6.8084596161  MEMB      68              0.0000000000
      7633        68  OSM       H13S          -29.7701932471      -14.6291487735        7.5167347269  MEMB      68              0.0000000000
      7634        68  OSM       H13T          -30.6696148043      -13.4192210315        6.7103943583  MEMB      68              0.0000000000
      7635        68  OSM       C14S          -30.3268597665      -15.3119042757        5.4873117217  MEMB      68              0.0000000000
      7636        68  OSM       H14S          -31.2610570711      -15.1744156692        4.9019117891  MEMB      68              0.0000000000
      7637        68  OSM       H14T          -30.2905780493      -16.3858088601        5.7696831222  MEMB      68              0.0000000000
      7638        68  OSM       C15S          -29.0804866527      -14.9145236132        4.7392717079  MEMB      68              0.0000000000
      7639        68  OSM       H15S          -29.1879106093      -15.5149080960        3.8106598678  MEMB      68              0.0000000000
      7640        68  OSM       H15T          -28.2292207344      -15.3415505320        5.3113857669  MEMB      68              0.0000000000
      7641        68  OSM       C16S          -28.9212972139      -13.4453889380        4.4798628603  MEMB      68              0.0000000000
      7642        68  OSM       H16S          -28.0821184131      -13.2312124053        3.7839968134  MEMB      68              0.0000000000
      7643        68  OSM       H16T          -28.7579454096      -12.9642545983        5.4678639777  MEMB      68              0.0000000000
      7644        68  OSM       C17S          -30.1318938898      -12.6559899342        3.9460408172  MEMB      68              0.0000000000
      7645        68  OSM       H17S          -30.0699334157      -11.5852430114        4.2358396816  MEMB      68              0.0000000000
      7646        68  OSM       H17T          -31.0838167689      -13.0042137713        4.4009073110  MEMB      68              0.0000000000
      7647        68  OSM       C18S          -30.3040465645      -12.7737099331        2.4397564576  MEMB      68              0.0000000000
      7648        68  OSM       H18S          -31.1804525225      -12.1524913677        2.1563469976  MEMB      68              0.0000000000
      7649        68  OSM       H18T          -30.6959199912      -13.7775662853        2.1695193693  MEMB      68              0.0000000000
      7650        68  OSM       H18U          -29.3595836345      -12.5315175465        1.9071645266  MEMB      68              0.0000000000
      7651        68  OSM       C1F           -27.9698972774      -15.3643481116       17.2135304465  MEMB      68              0.0000000000
      7652        68  OSM       OF            -28.0084710831      -16.4198183035       17.8306435709  MEMB      68              0.0000000000
      7653        68  OSM       C2F           -26.8050876827      -14.9269634761       16.3375522572  MEMB      68              0.0000000000
      7654        68  OSM       H2F           -25.8977925568      -15.3773401275       16.7939481630  MEMB      68              0.0000000000
      7655        68  OSM       H2G           -26.6028233220      -13.8523729732       16.5341882599  MEMB      68              0.0000000000
      7656        68  OSM       C3F           -26.8949940083      -15.2438144315       14.8605840090  MEMB      68              0.0000000000
      7657        68  OSM       H3F           -27.2801186000      -16.2845167146       14.9147964024  MEMB      68              0.0000000000
      7658        68  OSM       H3G           -25.9080503505      -15.2486558300       14.3504469573  MEMB      68              0.0000000000
      7659        68  OSM       C4F           -27.8717519337      -14.3713024247       14.0152108006  MEMB      68              0.0000000000
      7660        68  OSM       H4F           -27.4284651083      -13.3690257734       13.8328402765  MEMB      68              0.0000000000
      7661        68  OSM       H4G           -28.8213049408      -14.2401940605       14.5768873282  MEMB      68              0.0000000000
      7662        68  OSM       C5F           -28.3671242393      -14.9809034402       12.7252598168  MEMB      68              0.0000000000
      7663        68  OSM       H5F           -27.4500000408      -15.3060067962       12.1890574896  MEMB      68              0.0000000000
      7664        68  OSM       H5G           -28.6963121098      -14.1605227768       12.0522570709  MEMB      68              0.0000000000
      7665        68  OSM       C6F           -29.2967404113      -16.1669198239       12.7544285077  MEMB      68              0.0000000000
      7666        68  OSM       H6F           -30.2490922631      -15.9786579940       12.2141464489  MEMB      68              0.0000000000
      7667        68  OSM       H6G           -29.6997906185      -16.3560180109       13.7723247103  MEMB      68              0.0000000000
      7668        68  OSM       C7F           -28.6948624634      -17.3896119151       11.9538484021  MEMB      68              0.0000000000
      7669        68  OSM       H7F           -27.8465284105      -17.7492130200       12.5746031285  MEMB      68              0.0000000000
      7670        68  OSM       H7G           -28.2583290478      -17.1652697200       10.9571385380  MEMB      68              0.0000000000
      7671        68  OSM       C8F           -29.6651721522      -18.5524380697       11.9346919813  MEMB      68              0.0000000000
      7672        68  OSM       H8F           -29.9186681749      -18.8587674171       12.9721039577  MEMB      68              0.0000000000
      7673        68  OSM       H8G           -29.0139516479      -19.4009169128       11.6341649263  MEMB      68              0.0000000000
      7674        68  OSM       C9F           -30.9422323507      -18.3307546695       11.1739678336  MEMB      68              0.0000000000
      7675        68  OSM       H9F           -31.6989300614      -17.7027367080       11.6669204213  MEMB      68              0.0000000000
      7676        68  OSM       C10F          -31.2169543395      -18.8017477941        9.9289161616  MEMB      68              0.0000000000
      7677        68  OSM       H10F          -32.2444666989      -18.6954005713        9.5508838122  MEMB      68              0.0000000000
      7678        68  OSM       C11F          -30.3163427288      -19.6285291215        9.0695450496  MEMB      68              0.0000000000
      7679        68  OSM       H11F          -30.8530828828      -20.4516308558        8.5511481711  MEMB      68              0.0000000000
      7680        68  OSM       H11G          -29.4680921775      -20.0520738926        9.6486835873  MEMB      68              0.0000000000
      7681        68  OSM       C12F          -29.5816241277      -18.9155005583        7.8755798218  MEMB      68              0.0000000000
      7682        68  OSM       H12F          -28.9720001534      -18.0628542818        8.2439185930  MEMB      68              0.0000000000
      7683        68  OSM       H12G          -30.3304799701      -18.4663112600        7.1887276748  MEMB      68              0.0000000000
      7684        68  OSM       C13F          -28.5655996319      -19.8636781557        7.1319629836  MEMB      68              0.0000000000
      7685        68  OSM       H13F          -29.0170905853      -20.6676523533        6.5122033111  MEMB      68              0.0000000000
      7686        68  OSM       H13G          -27.9915982047      -20.4736006624        7.8619208239  MEMB      68              0.0000000000
      7687        68  OSM       C14F          -27.5876810564      -19.0822086212        6.2557458262  MEMB      68              0.0000000000
      7688        68  OSM       H14F          -26.7202285476      -18.6773287888        6.8195896868  MEMB      68              0.0000000000
      7689        68  OSM       H14G          -28.0378079728      -18.2243574816        5.7118728957  MEMB      68              0.0000000000
      7690        68  OSM       C15F          -26.8667031700      -19.9285513436        5.1923932511  MEMB      68              0.0000000000
      7691        68  OSM       H15F          -26.4561977466      -20.7934934512        5.7560252958  MEMB      68              0.0000000000
      7692        68  OSM       H15G          -26.0726036919      -19.3124937158        4.7188942657  MEMB      68              0.0000000000
      7693        68  OSM       C16F          -27.8210970438      -20.4646863023        4.0344603572  MEMB      68              0.0000000000
      7694        68  OSM       H16F          -28.6339714946      -21.0367873985        4.5307032311  MEMB      68              0.0000000000
      7695        68  OSM       H16G          -27.1202837382      -21.0890033312        3.4399780599  MEMB      68              0.0000000000
      7696        68  OSM       C17F          -28.5003473952      -19.4576786930        3.1651227405  MEMB      68              0.0000000000
      7697        68  OSM       H17F          -27.8640257372      -18.5562756931        3.0351675738  MEMB      68              0.0000000000
      7698        68  OSM       H17G          -29.4121261718      -19.0591923406        3.6592767099  MEMB      68              0.0000000000
      7699        68  OSM       C18F          -28.8761344226      -19.9508408637        1.7352333901  MEMB      68              0.0000000000
      7700        68  OSM       H18F          -28.0451584240      -19.8971786953        0.9997609978  MEMB      68              0.0000000000
      7701        68  OSM       H18G          -29.7603010392      -19.5192689595        1.2191751074  MEMB      68              0.0000000000
      7702        68  OSM       H18H          -29.2923711636      -20.9808207042        1.7497222097  MEMB      68              0.0000000000
      7703        69  SAPE      N             -25.1713890285      -22.1851439483       21.8995567397  MEMB      69              0.0000000000
      7704        69  SAPE      HN1           -26.0364660951      -21.7825503295       21.4858417006  MEMB      69              0.0000000000
      7705        69  SAPE      HN2           -24.9643262764      -21.5357360556       22.6850465662  MEMB      69              0.0000000000
      7706        69  SAPE      HN3           -24.3259283290      -22.2868742873       21.3025247768  MEMB      69              0.0000000000
      7707        69  SAPE      C12           -25.5463569401      -23.5565582315       22.4481907687  MEMB      69              0.0000000000
      7708        69  SAPE      H12A          -26.3021107958      -23.4775586497       23.2586944722  MEMB      69              0.0000000000
      7709        69  SAPE      H12B          -24.5416538810      -23.8590553066       22.8134143116  MEMB      69              0.0000000000
      7710        69  SAPE      C11           -26.0220031983      -24.4227451749       21.2855987351  MEMB      69              0.0000000000
      7711        69  SAPE      H11A          -26.9738356161      -24.0046375312       20.8937797608  MEMB      69              0.0000000000
      7712        69  SAPE      H11B          -26.3907983487      -25.3786746950       21.7151448119  MEMB      69              0.0000000000
      7713        69  SAPE      P             -25.2617357250      -24.2001021312       18.8122473522  MEMB      69              0.0000000000
      7714        69  SAPE      O13           -25.6677650591      -22.7690949486       18.7892222462  MEMB      69              0.0000000000
      7715        69  SAPE      O14           -24.0499324474      -24.7110662109       18.0263258606  MEMB      69              0.0000000000
      7716        69  SAPE      O12           -24.9752938020      -24.6294437010       20.3484027406  MEMB      69              0.0000000000
      7717        69  SAPE      O11           -26.4453355255      -25.1120680610       18.3904555572  MEMB      69              0.0000000000
      7718        69  SAPE      C1            -26.6220156878      -26.4708139109       18.5669771159  MEMB      69              0.0000000000
      7719        69  SAPE      HA            -25.7210813633      -26.7513890922       19.1534205119  MEMB      69              0.0000000000
      7720        69  SAPE      HB            -27.5626014099      -26.6697055973       19.1238088876  MEMB      69              0.0000000000
      7721        69  SAPE      C2            -26.6731622659      -27.2365116656       17.2371483637  MEMB      69              0.0000000000
      7722        69  SAPE      HS            -26.8563420219      -28.3226299711       17.3824526874  MEMB      69              0.0000000000
      7723        69  SAPE      O21           -25.5081654225      -27.0319655232       16.3531144817  MEMB      69              0.0000000000
      7724        69  SAPE      C21           -24.4697263533      -27.8596368602       16.5176634761  MEMB      69              0.0000000000
      7725        69  SAPE      O22           -24.4614028914      -28.8635367275       17.2441388285  MEMB      69              0.0000000000
      7726        69  SAPE      C22           -23.1898622884      -27.1606062995       15.9487728351  MEMB      69              0.0000000000
      7727        69  SAPE      H2R           -23.3611142020      -26.6071481259       15.0007866472  MEMB      69              0.0000000000
      7728        69  SAPE      H2S           -22.7949869781      -26.3748827732       16.6277667148  MEMB      69              0.0000000000
      7729        69  SAPE      C3            -27.8679963848      -26.7948756169       16.3421696917  MEMB      69              0.0000000000
      7730        69  SAPE      HX            -28.7806545625      -26.8654070689       16.9717735798  MEMB      69              0.0000000000
      7731        69  SAPE      HY            -28.1938132630      -27.4834980804       15.5334896941  MEMB      69              0.0000000000
      7732        69  SAPE      O31           -27.7064366427      -25.3877702545       16.0646591172  MEMB      69              0.0000000000
      7733        69  SAPE      C31           -27.4441272094      -24.9775449992       14.8097980185  MEMB      69              0.0000000000
      7734        69  SAPE      O32           -27.5111407849      -25.6861224451       13.8039782771  MEMB      69              0.0000000000
      7735        69  SAPE      C32           -27.1254034270      -23.5058398784       14.7879001395  MEMB      69              0.0000000000
      7736        69  SAPE      H2X           -27.1322795735      -23.0800847737       15.8140609654  MEMB      69              0.0000000000
      7737        69  SAPE      H2Y           -27.9551513911      -23.0036227935       14.2460353233  MEMB      69              0.0000000000
      7738        69  SAPE      C23           -22.0663638591      -28.2827612683       15.9160719592  MEMB      69              0.0000000000
      7739        69  SAPE      H3R           -22.1516616683      -28.8440817911       16.8710403817  MEMB      69              0.0000000000
      7740        69  SAPE      H3S           -21.0255312804      -27.9016828930       15.8401254173  MEMB      69              0.0000000000
      7741        69  SAPE      C24           -22.2070326320      -29.2972589611       14.7086399666  MEMB      69              0.0000000000
      7742        69  SAPE      H4R           -23.1944518195      -29.8019521670       14.6407477547  MEMB      69              0.0000000000
      7743        69  SAPE      H4S           -21.5219731829      -30.1502071391       14.9022734919  MEMB      69              0.0000000000
      7744        69  SAPE      C25           -21.8077957273      -28.6990075479       13.3415337645  MEMB      69              0.0000000000
      7745        69  SAPE      H5R           -20.7383608277      -28.8260408001       13.1175434852  MEMB      69              0.0000000000
      7746        69  SAPE      C26           -22.5275955793      -28.1270321193       12.4601706813  MEMB      69              0.0000000000
      7747        69  SAPE      H6R           -21.9983880772      -27.5847722568       11.6627413336  MEMB      69              0.0000000000
      7748        69  SAPE      C27           -24.0109209060      -27.8448268503       12.4046682310  MEMB      69              0.0000000000
      7749        69  SAPE      H7R           -24.3406538269      -27.8386572524       13.4655915186  MEMB      69              0.0000000000
      7750        69  SAPE      H7S           -24.4552061845      -28.7779754856       11.9970347814  MEMB      69              0.0000000000
      7751        69  SAPE      C28           -24.4029783499      -26.5618522879       11.6828891453  MEMB      69              0.0000000000
      7752        69  SAPE      H8R           -23.6510034848      -25.7862427792       11.8901667602  MEMB      69              0.0000000000
      7753        69  SAPE      C29           -25.3608344350      -26.3818392179       10.7777833240  MEMB      69              0.0000000000
      7754        69  SAPE      H9R           -25.4275118406      -25.3713957155       10.3481810155  MEMB      69              0.0000000000
      7755        69  SAPE      C210          -26.4235042420      -27.3241968813       10.1779850428  MEMB      69              0.0000000000
      7756        69  SAPE      H10R          -27.3007696444      -26.7951322028        9.7480818447  MEMB      69              0.0000000000
      7757        69  SAPE      H10S          -26.7976092930      -27.9260657885       11.0336255057  MEMB      69              0.0000000000
      7758        69  SAPE      C211          -25.8371308215      -28.2314572736        9.0772692621  MEMB      69              0.0000000000
      7759        69  SAPE      H11R          -25.3593026133      -29.1324063355        9.4895447674  MEMB      69              0.0000000000
      7760        69  SAPE      C212          -25.7969156135      -28.1166834724        7.7200782873  MEMB      69              0.0000000000
      7761        69  SAPE      H12R          -25.1134006578      -28.7210451314        7.1056241501  MEMB      69              0.0000000000
      7762        69  SAPE      C213          -26.3807828284      -26.9645100762        6.9467289522  MEMB      69              0.0000000000
      7763        69  SAPE      H13R          -25.6356360469      -26.8352676752        6.1328654439  MEMB      69              0.0000000000
      7764        69  SAPE      H13S          -26.1534642885      -26.0094826435        7.4668930546  MEMB      69              0.0000000000
      7765        69  SAPE      C214          -27.8834675289      -27.1186814578        6.7416853748  MEMB      69              0.0000000000
      7766        69  SAPE      H14R          -28.6024285944      -27.0707870536        7.5728299266  MEMB      69              0.0000000000
      7767        69  SAPE      C215          -28.4635378749      -27.3219389798        5.5359440136  MEMB      69              0.0000000000
      7768        69  SAPE      H15R          -29.5261594636      -27.5955773706        5.6131283764  MEMB      69              0.0000000000
      7769        69  SAPE      C216          -27.9131019155      -27.4294267251        4.1834011611  MEMB      69              0.0000000000
      7770        69  SAPE      H16R          -27.3185449632      -26.5379731640        3.8899164227  MEMB      69              0.0000000000
      7771        69  SAPE      H16S          -28.6173698818      -27.6717492158        3.3590181119  MEMB      69              0.0000000000
      7772        69  SAPE      C217          -26.9290616647      -28.6952275022        4.1386677488  MEMB      69              0.0000000000
      7773        69  SAPE      H17R          -27.5356488856      -29.5803487501        4.4266491650  MEMB      69              0.0000000000
      7774        69  SAPE      H17S          -26.0373318854      -28.4929304912        4.7697101104  MEMB      69              0.0000000000
      7775        69  SAPE      C218          -26.3878088876      -28.9224975650        2.7718829284  MEMB      69              0.0000000000
      7776        69  SAPE      H18R          -25.4586644178      -28.3303798512        2.6290277395  MEMB      69              0.0000000000
      7777        69  SAPE      H18S          -26.9733090444      -28.3931613126        1.9900177299  MEMB      69              0.0000000000
      7778        69  SAPE      C219          -26.0834298494      -30.3177084187        2.3956923760  MEMB      69              0.0000000000
      7779        69  SAPE      H19R          -25.5556805993      -30.1236552579        1.4374938406  MEMB      69              0.0000000000
      7780        69  SAPE      H19S          -27.0399915549      -30.8679448414        2.2670413427  MEMB      69              0.0000000000
      7781        69  SAPE      C220          -25.0399679214      -31.1237883942        3.2112510862  MEMB      69              0.0000000000
      7782        69  SAPE      H20R          -24.0083513136      -30.7151819412        3.1553149357  MEMB      69              0.0000000000
      7783        69  SAPE      H20S          -24.9495431125      -32.2192382061        3.0495911756  MEMB      69              0.0000000000
      7784        69  SAPE      H20T          -25.3318743447      -31.2335577330        4.2775816340  MEMB      69              0.0000000000
      7785        69  SAPE      C33           -25.6975181210      -23.1751432965       14.1777075903  MEMB      69              0.0000000000
      7786        69  SAPE      H3X           -25.9745799046      -22.1926524224       13.7392222236  MEMB      69              0.0000000000
      7787        69  SAPE      H3Y           -25.3509115085      -23.6988403395       13.2612327688  MEMB      69              0.0000000000
      7788        69  SAPE      C34           -24.5734255418      -23.1193703719       15.1889806477  MEMB      69              0.0000000000
      7789        69  SAPE      H4X           -24.5182806121      -24.1481864011       15.6046939172  MEMB      69              0.0000000000
      7790        69  SAPE      H4Y           -24.8109018165      -22.3845291029       15.9876885086  MEMB      69              0.0000000000
      7791        69  SAPE      C35           -23.1712949573      -22.6874410662       14.6745121326  MEMB      69              0.0000000000
      7792        69  SAPE      H5X           -22.3869833962      -22.5280880863       15.4450854950  MEMB      69              0.0000000000
      7793        69  SAPE      H5Y           -23.3071097564      -21.6909346009       14.2024421105  MEMB      69              0.0000000000
      7794        69  SAPE      C36           -22.6939310973      -23.5063645947       13.4446371307  MEMB      69              0.0000000000
      7795        69  SAPE      H6X           -23.5778535649      -23.6503499368       12.7871646615  MEMB      69              0.0000000000
      7796        69  SAPE      H6Y           -22.3770073548      -24.5296127333       13.7393294012  MEMB      69              0.0000000000
      7797        69  SAPE      C37           -21.6330660543      -22.8681073774       12.5239837895  MEMB      69              0.0000000000
      7798        69  SAPE      H7X           -20.7339134232      -22.6943795053       13.1530017579  MEMB      69              0.0000000000
      7799        69  SAPE      H7Y           -21.8882274064      -21.8447036538       12.1749018581  MEMB      69              0.0000000000
      7800        69  SAPE      C38           -21.4218254158      -23.6759561299       11.2017728803  MEMB      69              0.0000000000
      7801        69  SAPE      H8X           -22.3377798299      -23.8705942521       10.6038894419  MEMB      69              0.0000000000
      7802        69  SAPE      H8Y           -20.9898726038      -24.6603460247       11.4823335299  MEMB      69              0.0000000000
      7803        69  SAPE      C39           -20.3653323627      -23.1216442373       10.1851595947  MEMB      69              0.0000000000
      7804        69  SAPE      H9X           -19.8834082143      -23.8916878726        9.5455478750  MEMB      69              0.0000000000
      7805        69  SAPE      H9Y           -19.5457653434      -22.5662650396       10.6893262855  MEMB      69              0.0000000000
      7806        69  SAPE      C310          -20.9758253033      -22.0566933324        9.1779486964  MEMB      69              0.0000000000
      7807        69  SAPE      H10X          -20.2154999248      -21.8361326823        8.3984750260  MEMB      69              0.0000000000
      7808        69  SAPE      H10Y          -21.2308714868      -21.1177535464        9.7142925716  MEMB      69              0.0000000000
      7809        69  SAPE      C311          -22.2073607296      -22.4308307369        8.3629533801  MEMB      69              0.0000000000
      7810        69  SAPE      H11X          -22.5257913983      -21.4439739699        7.9641601052  MEMB      69              0.0000000000
      7811        69  SAPE      H11Y          -23.0717324001      -22.7424555300        8.9875118888  MEMB      69              0.0000000000
      7812        69  SAPE      C312          -22.0334965134      -23.5501802069        7.2218762316  MEMB      69              0.0000000000
      7813        69  SAPE      H12X          -22.1009288055      -24.5886530614        7.6109108476  MEMB      69              0.0000000000
      7814        69  SAPE      H12Y          -20.9810843921      -23.4466500488        6.8812422641  MEMB      69              0.0000000000
      7815        69  SAPE      C313          -22.8548374451      -23.3987549243        5.9764469636  MEMB      69              0.0000000000
      7816        69  SAPE      H13X          -22.5614169530      -24.0663165324        5.1382428768  MEMB      69              0.0000000000
      7817        69  SAPE      H13Y          -22.7213726867      -22.4194531369        5.4690254207  MEMB      69              0.0000000000
      7818        69  SAPE      C314          -24.3581641333      -23.6153921200        6.2722799659  MEMB      69              0.0000000000
      7819        69  SAPE      H14X          -24.6674069129      -23.2530512263        7.2759718259  MEMB      69              0.0000000000
      7820        69  SAPE      H14Y          -24.4655057680      -24.7106096990        6.1196447652  MEMB      69              0.0000000000
      7821        69  SAPE      C315          -25.1716362104      -22.9313867947        5.1340334370  MEMB      69              0.0000000000
      7822        69  SAPE      H15X          -24.7036602329      -21.9453485375        4.9265540011  MEMB      69              0.0000000000
      7823        69  SAPE      H15Y          -26.1942040773      -22.6595530986        5.4728282517  MEMB      69              0.0000000000
      7824        69  SAPE      C316          -25.2178529113      -23.7595463114        3.7589656967  MEMB      69              0.0000000000
      7825        69  SAPE      H16X          -25.7633746946      -24.7193015079        3.8838538641  MEMB      69              0.0000000000
      7826        69  SAPE      H16Y          -24.1765466701      -24.0615360965        3.5164696157  MEMB      69              0.0000000000
      7827        69  SAPE      C317          -25.8294141524      -22.8540043023        2.7173189233  MEMB      69              0.0000000000
      7828        69  SAPE      H17X          -25.0373031614      -22.0751778782        2.7349363452  MEMB      69              0.0000000000
      7829        69  SAPE      H17Y          -26.7117707494      -22.2738198660        3.0625073104  MEMB      69              0.0000000000
      7830        69  SAPE      C318          -26.0713802268      -23.2820339914        1.3057686907  MEMB      69              0.0000000000
      7831        69  SAPE      H18X          -25.1313255200      -23.6489856592        0.8410484723  MEMB      69              0.0000000000
      7832        69  SAPE      H18Y          -26.4255545107      -22.4556963621        0.6530448562  MEMB      69              0.0000000000
      7833        69  SAPE      H18Z          -26.8714146671      -24.0368539153        1.1492025701  MEMB      69              0.0000000000
      7834        70  CHL1      C3            -33.6821673436       11.3971287636       17.3638750000  MEMB      70              0.0000000000
      7835        70  CHL1      H3            -33.5678030431       10.2920883631       17.3529750000  MEMB      70              0.0000000000
      7836        70  CHL1      O3            -34.0726036564       11.8675016364       18.6361250000  MEMB      70              0.0000000000
      7837        70  CHL1      H3'           -33.4869641756       11.3853635523       19.2244850000  MEMB      70              0.0000000000
      7838        70  CHL1      C4            -32.3394636412       12.0776244300       17.0317550000  MEMB      70              0.0000000000
      7839        70  CHL1      H4A           -32.4230402067       13.1807846786       17.1336550000  MEMB      70              0.0000000000
      7840        70  CHL1      H4B           -31.4958481452       11.8771967766       17.7263550000  MEMB      70              0.0000000000
      7841        70  CHL1      C5            -31.9263345696       11.7960817506       15.6355250000  MEMB      70              0.0000000000
      7842        70  CHL1      C6            -30.7114462331       11.4415799722       15.2888350000  MEMB      70              0.0000000000
      7843        70  CHL1      H6            -29.8753770022       11.2642531064       15.9813250000  MEMB      70              0.0000000000
      7844        70  CHL1      C7            -30.3724829139       11.1682346443       13.8498450000  MEMB      70              0.0000000000
      7845        70  CHL1      H7A           -29.3007620227       11.4332260154       13.7252650000  MEMB      70              0.0000000000
      7846        70  CHL1      H7B           -30.4137645752       10.0788980638       13.6354750000  MEMB      70              0.0000000000
      7847        70  CHL1      C8            -31.3601386309       11.8340270566       12.9030650000  MEMB      70              0.0000000000
      7848        70  CHL1      H8            -31.3709873174       12.9444622846       12.9366650000  MEMB      70              0.0000000000
      7849        70  CHL1      C14           -30.9543533279       11.4673144485       11.4231450000  MEMB      70              0.0000000000
      7850        70  CHL1      H14           -31.1275300519       10.3838737534       11.2485750000  MEMB      70              0.0000000000
      7851        70  CHL1      C15           -29.5448014690       11.8883502982       10.9954250000  MEMB      70              0.0000000000
      7852        70  CHL1      H15A          -29.3123334250       12.9132739415       11.3557250000  MEMB      70              0.0000000000
      7853        70  CHL1      H15B          -28.7931232920       11.1583003244       11.3646450000  MEMB      70              0.0000000000
      7854        70  CHL1      C16           -29.6029795746       12.0462714207        9.4276750000  MEMB      70              0.0000000000
      7855        70  CHL1      H16A          -29.3322430007       13.0929508362        9.1718050000  MEMB      70              0.0000000000
      7856        70  CHL1      H16B          -29.0755149487       11.2658273253        8.8386050000  MEMB      70              0.0000000000
      7857        70  CHL1      C17           -31.0741252443       11.7646311555        9.1765750000  MEMB      70              0.0000000000
      7858        70  CHL1      H17           -31.2317998171       10.6656281659        9.2173850000  MEMB      70              0.0000000000
      7859        70  CHL1      C13           -31.8523076807       12.2116418101       10.4215550000  MEMB      70              0.0000000000
      7860        70  CHL1      C18           -31.7367076038       13.7438485033       10.5484550000  MEMB      70              0.0000000000
      7861        70  CHL1      H18A          -32.5381823984       14.2865823012       10.0031150000  MEMB      70              0.0000000000
      7862        70  CHL1      H18B          -31.8362072680       14.0926235681       11.5985850000  MEMB      70              0.0000000000
      7863        70  CHL1      H18C          -30.7221045369       14.1183624938       10.2942250000  MEMB      70              0.0000000000
      7864        70  CHL1      C12           -33.2823438055       11.6712666955       10.7149050000  MEMB      70              0.0000000000
      7865        70  CHL1      H12A          -33.9776888261       12.1653565286       10.0030850000  MEMB      70              0.0000000000
      7866        70  CHL1      H12B          -33.1046661053       10.6225693871       10.3939950000  MEMB      70              0.0000000000
      7867        70  CHL1      C11           -33.7953036086       11.8753255762       12.0850450000  MEMB      70              0.0000000000
      7868        70  CHL1      H11A          -33.9209749087       12.9784609674       12.1252450000  MEMB      70              0.0000000000
      7869        70  CHL1      H11B          -34.7894296964       11.3980937201       12.2202550000  MEMB      70              0.0000000000
      7870        70  CHL1      C9            -32.8256574957       11.4585372359       13.2395550000  MEMB      70              0.0000000000
      7871        70  CHL1      H9            -32.8378222081       10.3501424660       13.3146150000  MEMB      70              0.0000000000
      7872        70  CHL1      C10           -33.1132169471       12.0027481572       14.6388850000  MEMB      70              0.0000000000
      7873        70  CHL1      C19           -33.3485607521       13.5920311702       14.5624750000  MEMB      70              0.0000000000
      7874        70  CHL1      H19A          -34.2333279669       13.8075804647       13.9260450000  MEMB      70              0.0000000000
      7875        70  CHL1      H19B          -33.4732256088       14.0932959969       15.5461050000  MEMB      70              0.0000000000
      7876        70  CHL1      H19C          -32.4219529587       14.0269210434       14.1305350000  MEMB      70              0.0000000000
      7877        70  CHL1      C1            -34.3981136027       11.2790301548       15.1009950000  MEMB      70              0.0000000000
      7878        70  CHL1      H1A           -35.2518423866       11.5252819623       14.4340450000  MEMB      70              0.0000000000
      7879        70  CHL1      H1B           -34.3132570762       10.1722565283       15.1475250000  MEMB      70              0.0000000000
      7880        70  CHL1      C2            -34.8239670730       11.7089584947       16.4443250000  MEMB      70              0.0000000000
      7881        70  CHL1      H2A           -35.6885582022       11.0550067600       16.6875450000  MEMB      70              0.0000000000
      7882        70  CHL1      H2B           -35.0727198753       12.7903003932       16.5005250000  MEMB      70              0.0000000000
      7883        70  CHL1      C20           -31.6177441373       12.1511886234        7.7586150000  MEMB      70              0.0000000000
      7884        70  CHL1      H20           -30.9626201701       11.6175843568        7.0372250000  MEMB      70              0.0000000000
      7885        70  CHL1      C21           -31.5783057324       13.6470750714        7.3265050000  MEMB      70              0.0000000000
      7886        70  CHL1      H21A          -30.6055211035       14.1140382990        7.5909650000  MEMB      70              0.0000000000
      7887        70  CHL1      H21B          -32.3623749596       14.1528687660        7.9296050000  MEMB      70              0.0000000000
      7888        70  CHL1      H21C          -31.7985175171       13.7822352773        6.2459650000  MEMB      70              0.0000000000
      7889        70  CHL1      C22           -32.9400431137       11.4540610553        7.4611750000  MEMB      70              0.0000000000
      7890        70  CHL1      H22A          -32.8278798677       10.3827893720        7.7334250000  MEMB      70              0.0000000000
      7891        70  CHL1      H22B          -33.7311671020       11.8932265626        8.1058250000  MEMB      70              0.0000000000
      7892        70  CHL1      C23           -33.3018574142       11.5045393073        5.9775950000  MEMB      70              0.0000000000
      7893        70  CHL1      H23A          -33.6266714963       12.5288675528        5.6955450000  MEMB      70              0.0000000000
      7894        70  CHL1      H23B          -32.4218424845       11.2318996818        5.3566550000  MEMB      70              0.0000000000
      7895        70  CHL1      C24           -34.4351065099       10.5592785106        5.6147950000  MEMB      70              0.0000000000
      7896        70  CHL1      H24A          -34.2825687430        9.5633869345        6.0830350000  MEMB      70              0.0000000000
      7897        70  CHL1      H24B          -35.3076734545       10.9587307597        6.1746050000  MEMB      70              0.0000000000
      7898        70  CHL1      C25           -34.7519250781       10.4030253222        4.1302450000  MEMB      70              0.0000000000
      7899        70  CHL1      H25           -34.9454130995       11.4491310404        3.8099950000  MEMB      70              0.0000000000
      7900        70  CHL1      C26           -33.6341619916        9.7895114610        3.2177850000  MEMB      70              0.0000000000
      7901        70  CHL1      H26A          -32.6570675266       10.1875172241        3.5659350000  MEMB      70              0.0000000000
      7902        70  CHL1      H26B          -33.5981568972        8.6818274042        3.2956350000  MEMB      70              0.0000000000
      7903        70  CHL1      H26C          -33.8566857283       10.1251310191        2.1823350000  MEMB      70              0.0000000000
      7904        70  CHL1      C27           -36.0105713976        9.5234735239        3.9240850000  MEMB      70              0.0000000000
      7905        70  CHL1      H27A          -35.9045773991        8.4923001108        4.3238050000  MEMB      70              0.0000000000
      7906        70  CHL1      H27B          -36.8674449052       10.0384218544        4.4087750000  MEMB      70              0.0000000000
      7907        70  CHL1      H27C          -36.1810440947        9.4146346428        2.8316550000  MEMB      70              0.0000000000
      7908        71  SAPC      N               7.7500785405      -34.1627167698       20.1197857720  MEMB      71              0.0000000000
      7909        71  SAPC      C12             6.7485351799      -34.6856038160       21.2463046379  MEMB      71              0.0000000000
      7910        71  SAPC      H12A            6.6998353758      -33.9097885786       21.9960640545  MEMB      71              0.0000000000
      7911        71  SAPC      H12B            7.1476506634      -35.5905226764       21.6801580334  MEMB      71              0.0000000000
      7912        71  SAPC      C13             7.1669905215      -32.9551727907       19.4785689911  MEMB      71              0.0000000000
      7913        71  SAPC      H13A            7.7706489662      -32.5647770014       18.6725988669  MEMB      71              0.0000000000
      7914        71  SAPC      H13B            6.2185729059      -33.1056390023       18.9843383734  MEMB      71              0.0000000000
      7915        71  SAPC      H13C            7.0144619353      -32.1398424744       20.1702131480  MEMB      71              0.0000000000
      7916        71  SAPC      C14             9.0569096918      -33.9895560430       20.7311171042  MEMB      71              0.0000000000
      7917        71  SAPC      H14A            9.1530887476      -33.0885046654       21.3187021680  MEMB      71              0.0000000000
      7918        71  SAPC      H14B            9.3858822323      -34.7878157991       21.3799300253  MEMB      71              0.0000000000
      7919        71  SAPC      H14C            9.8692273925      -33.9018901712       20.0248206527  MEMB      71              0.0000000000
      7920        71  SAPC      C15             7.8432431084      -35.2094393515       19.0465431492  MEMB      71              0.0000000000
      7921        71  SAPC      H15A            8.2749408247      -36.1272910171       19.4174681588  MEMB      71              0.0000000000
      7922        71  SAPC      H15B            6.8605137054      -35.4779464217       18.6880091054  MEMB      71              0.0000000000
      7923        71  SAPC      H15C            8.5144046181      -34.9725930219       18.2342340071  MEMB      71              0.0000000000
      7924        71  SAPC      C11             5.3096637095      -35.0603280732       20.7838061601  MEMB      71              0.0000000000
      7925        71  SAPC      H11A            4.9795282706      -34.2100484215       20.1494907334  MEMB      71              0.0000000000
      7926        71  SAPC      H11B            4.7057809779      -35.2697462860       21.6925364501  MEMB      71              0.0000000000
      7927        71  SAPC      P               4.0625317202      -37.1527545535       19.7125743949  MEMB      71              0.0000000000
      7928        71  SAPC      O13             4.2970431191      -37.7986329837       18.3725657728  MEMB      71              0.0000000000
      7929        71  SAPC      O14             3.8921946477      -38.0710816936       20.8844679244  MEMB      71              0.0000000000
      7930        71  SAPC      O12             5.2869164207      -36.2277876725       19.9969291442  MEMB      71              0.0000000000
      7931        71  SAPC      O11             2.8008568689      -36.2164745613       19.6273369464  MEMB      71              0.0000000000
      7932        71  SAPC      C1              2.6632218020      -35.0778932485       18.8176370784  MEMB      71              0.0000000000
      7933        71  SAPC      HA              2.0532487036      -34.3284743128       19.3659300705  MEMB      71              0.0000000000
      7934        71  SAPC      HB              3.6046250926      -34.4891388047       18.7795715346  MEMB      71              0.0000000000
      7935        71  SAPC      C2              1.9752443517      -35.2706020472       17.4251135194  MEMB      71              0.0000000000
      7936        71  SAPC      HS              0.8790220560      -35.3703601338       17.5756668817  MEMB      71              0.0000000000
      7937        71  SAPC      O21             2.3118198405      -36.6079900753       16.8970741362  MEMB      71              0.0000000000
      7938        71  SAPC      C21             1.5185034340      -37.0552349080       15.9421698549  MEMB      71              0.0000000000
      7939        71  SAPC      O22             0.6632012448      -36.4633698251       15.3328309841  MEMB      71              0.0000000000
      7940        71  SAPC      C22             1.7540382817      -38.5614825473       15.5723367164  MEMB      71              0.0000000000
      7941        71  SAPC      H2R             1.3827008750      -39.1286204195       16.4525550722  MEMB      71              0.0000000000
      7942        71  SAPC      H2S             0.9869082402      -38.7750692993       14.7976021949  MEMB      71              0.0000000000
      7943        71  SAPC      C3              2.3412186130      -34.1084830267       16.4838077616  MEMB      71              0.0000000000
      7944        71  SAPC      HX              1.9680316479      -33.2702395841       17.1102265325  MEMB      71              0.0000000000
      7945        71  SAPC      HY              1.7226233630      -34.1625717514       15.5625393387  MEMB      71              0.0000000000
      7946        71  SAPC      O31             3.7898752077      -34.0873010853       16.2256219101  MEMB      71              0.0000000000
      7947        71  SAPC      C31             4.1295482923      -33.0208187458       15.5493968268  MEMB      71              0.0000000000
      7948        71  SAPC      O32             3.3259119928      -32.2043928403       15.0664837416  MEMB      71              0.0000000000
      7949        71  SAPC      C32             5.7167305231      -33.0090575921       15.3318559920  MEMB      71              0.0000000000
      7950        71  SAPC      H2X             6.1283921087      -32.8876234801       16.3566044101  MEMB      71              0.0000000000
      7951        71  SAPC      H2Y             6.0530463078      -32.2280800967       14.6168125695  MEMB      71              0.0000000000
      7952        71  SAPC      C23             3.1654293096      -39.0010890421       15.0693854036  MEMB      71              0.0000000000
      7953        71  SAPC      H3R             3.8222987366      -39.0783903218       15.9620599976  MEMB      71              0.0000000000
      7954        71  SAPC      H3S             3.4687121000      -38.0878858031       14.5140475439  MEMB      71              0.0000000000
      7955        71  SAPC      C24             3.1575871006      -40.3001523439       14.2064083274  MEMB      71              0.0000000000
      7956        71  SAPC      H4R             2.5390239921      -40.0880768373       13.3082297952  MEMB      71              0.0000000000
      7957        71  SAPC      H4S             2.6051307763      -40.9941039057       14.8753956847  MEMB      71              0.0000000000
      7958        71  SAPC      C25             4.5442453660      -40.7306478308       13.9384588411  MEMB      71              0.0000000000
      7959        71  SAPC      H5R             4.9656286086      -41.1965557375       14.8414352700  MEMB      71              0.0000000000
      7960        71  SAPC      C26             5.3879178896      -40.6422331699       12.9015938182  MEMB      71              0.0000000000
      7961        71  SAPC      H6R             6.4187437723      -41.0199155935       12.9705415404  MEMB      71              0.0000000000
      7962        71  SAPC      C27             5.0296586350      -39.9286525779       11.6338440887  MEMB      71              0.0000000000
      7963        71  SAPC      H7R             5.9563187478      -39.8015236244       11.0342937067  MEMB      71              0.0000000000
      7964        71  SAPC      H7S             4.6811664326      -38.8964558893       11.8516606872  MEMB      71              0.0000000000
      7965        71  SAPC      C28             4.0968094966      -40.6662513885       10.7671763121  MEMB      71              0.0000000000
      7966        71  SAPC      H8R             3.9504483845      -41.6952979094       11.1272334957  MEMB      71              0.0000000000
      7967        71  SAPC      C29             3.3582721810      -40.2625047271        9.7658483210  MEMB      71              0.0000000000
      7968        71  SAPC      H9R             2.5713374501      -40.9479976751        9.4182370389  MEMB      71              0.0000000000
      7969        71  SAPC      C210            3.2308578030      -38.8292952059        9.1897614217  MEMB      71              0.0000000000
      7970        71  SAPC      H10R            2.5838908298      -38.9079691143        8.2900034868  MEMB      71              0.0000000000
      7971        71  SAPC      H10S            4.2353886327      -38.4599180414        8.8917695780  MEMB      71              0.0000000000
      7972        71  SAPC      C211            2.7073940237      -37.6649008323       10.0091485909  MEMB      71              0.0000000000
      7973        71  SAPC      H11R            2.9856265111      -37.8222237972       11.0616857794  MEMB      71              0.0000000000
      7974        71  SAPC      C212            1.9913192499      -36.5854403956        9.5204071064  MEMB      71              0.0000000000
      7975        71  SAPC      H12R            1.5954859513      -35.8715993257       10.2577987254  MEMB      71              0.0000000000
      7976        71  SAPC      C213            1.7154425828      -36.4183954179        8.0673950114  MEMB      71              0.0000000000
      7977        71  SAPC      H13R            2.2475682362      -37.1749603499        7.4519500979  MEMB      71              0.0000000000
      7978        71  SAPC      H13S            2.1729037281      -35.4379903721        7.8146976757  MEMB      71              0.0000000000
      7979        71  SAPC      C214            0.2062390058      -36.3391830997        7.6813633627  MEMB      71              0.0000000000
      7980        71  SAPC      H14R           -0.4886708582      -36.7288899528        8.4398016872  MEMB      71              0.0000000000
      7981        71  SAPC      C215           -0.2635158091      -36.0287109616        6.4957786805  MEMB      71              0.0000000000
      7982        71  SAPC      H15R           -1.3255459039      -36.0302835757        6.2092651700  MEMB      71              0.0000000000
      7983        71  SAPC      C216            0.6312815137      -35.6074331380        5.2506641277  MEMB      71              0.0000000000
      7984        71  SAPC      H16R            0.9516723634      -36.4377555001        4.5856554570  MEMB      71              0.0000000000
      7985        71  SAPC      H16S            1.5457702500      -35.0643346563        5.5717168794  MEMB      71              0.0000000000
      7986        71  SAPC      C217           -0.0649493130      -34.5763267706        4.2867695655  MEMB      71              0.0000000000
      7987        71  SAPC      H17R           -0.1296604563      -33.5609449884        4.7330125698  MEMB      71              0.0000000000
      7988        71  SAPC      H17S           -1.0846154800      -34.9574250895        4.0645831998  MEMB      71              0.0000000000
      7989        71  SAPC      C218            0.4531864214      -34.3324039031        2.8586534114  MEMB      71              0.0000000000
      7990        71  SAPC      H18R           -0.1671086686      -33.5241922041        2.4155406949  MEMB      71              0.0000000000
      7991        71  SAPC      H18S            0.3096945934      -35.2486132642        2.2468602198  MEMB      71              0.0000000000
      7992        71  SAPC      C219            1.9121563093      -33.9569734912        2.8540860980  MEMB      71              0.0000000000
      7993        71  SAPC      H19R            2.5263386733      -34.8423406213        3.1246890123  MEMB      71              0.0000000000
      7994        71  SAPC      H19S            2.1261153583      -33.1421363562        3.5783683699  MEMB      71              0.0000000000
      7995        71  SAPC      C220            2.4273772340      -33.5387998100        1.4857742806  MEMB      71              0.0000000000
      7996        71  SAPC      H20R            1.8720917687      -34.0925886716        0.6988195858  MEMB      71              0.0000000000
      7997        71  SAPC      H20S            3.5088595166      -33.7644662414        1.3683359088  MEMB      71              0.0000000000
      7998        71  SAPC      H20T            2.3135304362      -32.4586032676        1.2522467346  MEMB      71              0.0000000000
      7999        71  SAPC      C33             6.1815246181      -34.3822826013       14.6736255703  MEMB      71              0.0000000000
      8000        71  SAPC      H3X             5.5050532894      -35.2222736860       14.9403132468  MEMB      71              0.0000000000
      8001        71  SAPC      H3Y             7.2296285025      -34.5828856184       14.9827500073  MEMB      71              0.0000000000
      8002        71  SAPC      C34             6.1116480757      -34.2057141430       13.1590989058  MEMB      71              0.0000000000
      8003        71  SAPC      H4X             6.7252852315      -35.0737134530       12.8360698901  MEMB      71              0.0000000000
      8004        71  SAPC      H4Y             6.6519345724      -33.2888486584       12.8400860105  MEMB      71              0.0000000000
      8005        71  SAPC      C35             4.7159635672      -34.0743865913       12.4554659207  MEMB      71              0.0000000000
      8006        71  SAPC      H5X             4.0752698312      -33.3768160955       13.0361793099  MEMB      71              0.0000000000
      8007        71  SAPC      H5Y             4.2681664552      -35.0853547218       12.5638267330  MEMB      71              0.0000000000
      8008        71  SAPC      C36             4.7822338939      -33.4548950026       10.9834954325  MEMB      71              0.0000000000
      8009        71  SAPC      H6X             5.2769597707      -32.4694916708       11.1196833262  MEMB      71              0.0000000000
      8010        71  SAPC      H6Y             3.7384664948      -33.3092853325       10.6318298790  MEMB      71              0.0000000000
      8011        71  SAPC      C37             5.3713359320      -34.4246028539        9.8946824424  MEMB      71              0.0000000000
      8012        71  SAPC      H7X             4.8235101761      -34.3085275183        8.9351332499  MEMB      71              0.0000000000
      8013        71  SAPC      H7Y             5.2659697243      -35.4783603292       10.2305606878  MEMB      71              0.0000000000
      8014        71  SAPC      C38             6.7935124246      -34.1459189545        9.6396027419  MEMB      71              0.0000000000
      8015        71  SAPC      H8X             7.3714116083      -34.2611382010       10.5814517752  MEMB      71              0.0000000000
      8016        71  SAPC      H8Y             6.9171213073      -33.0931016636        9.3070103223  MEMB      71              0.0000000000
      8017        71  SAPC      C39             7.4492724197      -34.9777252467        8.5321669207  MEMB      71              0.0000000000
      8018        71  SAPC      H9X             7.1922724039      -36.0258053121        8.7963644967  MEMB      71              0.0000000000
      8019        71  SAPC      H9Y             8.5582598288      -34.9111517579        8.5381755467  MEMB      71              0.0000000000
      8020        71  SAPC      C310            7.1477488146      -34.5573528918        7.0326006817  MEMB      71              0.0000000000
      8021        71  SAPC      H10X            7.4450266101      -33.4900342993        6.9502720317  MEMB      71              0.0000000000
      8022        71  SAPC      H10Y            6.0427744679      -34.6099470915        6.9297089545  MEMB      71              0.0000000000
      8023        71  SAPC      C311            7.7258464546      -35.5314775733        6.0488629129  MEMB      71              0.0000000000
      8024        71  SAPC      H11X            7.2853084621      -36.5286077865        6.2632891945  MEMB      71              0.0000000000
      8025        71  SAPC      H11Y            8.8296201521      -35.5230936527        6.1750920729  MEMB      71              0.0000000000
      8026        71  SAPC      C312            7.5093338333      -35.2503844580        4.6199133977  MEMB      71              0.0000000000
      8027        71  SAPC      H12X            7.9222584934      -36.1471675788        4.1104092626  MEMB      71              0.0000000000
      8028        71  SAPC      H12Y            7.9754358548      -34.3008932096        4.2800067906  MEMB      71              0.0000000000
      8029        71  SAPC      C313            6.0611328163      -35.3214546795        4.1602212377  MEMB      71              0.0000000000
      8030        71  SAPC      H13X            5.5926046967      -34.3145594329        4.1291675973  MEMB      71              0.0000000000
      8031        71  SAPC      H13Y            5.5517547051      -35.9751977842        4.9001368082  MEMB      71              0.0000000000
      8032        71  SAPC      C314            5.8416080640      -35.9407427780        2.7558786855  MEMB      71              0.0000000000
      8033        71  SAPC      H14X            4.7520188102      -35.9351860175        2.5388866036  MEMB      71              0.0000000000
      8034        71  SAPC      H14Y            6.1809686853      -36.9952475751        2.8405829900  MEMB      71              0.0000000000
      8035        71  SAPC      C315            6.7982414094      -35.3472158005        1.7102652623  MEMB      71              0.0000000000
      8036        71  SAPC      H15X            7.8063900282      -35.5088869144        2.1482377264  MEMB      71              0.0000000000
      8037        71  SAPC      H15Y            6.7030819552      -34.2407165035        1.6798483845  MEMB      71              0.0000000000
      8038        71  SAPC      C316            6.6662060720      -36.0112763585        0.3310930797  MEMB      71              0.0000000000
      8039        71  SAPC      H16X            5.5848215583      -35.9475207305        0.0843853913  MEMB      71              0.0000000000
      8040        71  SAPC      H16Y            7.0064798758      -37.0652629241        0.4185402707  MEMB      71              0.0000000000
      8041        71  SAPC      C317            7.5140172383      -35.2595961795       -0.7387726968  MEMB      71              0.0000000000
      8042        71  SAPC      H17X            8.5472309338      -35.6574429048       -0.8310117303  MEMB      71              0.0000000000
      8043        71  SAPC      H17Y            7.6488884807      -34.2043663967       -0.4184285378  MEMB      71              0.0000000000
      8044        71  SAPC      C318            6.8270334815      -35.2266329370       -2.0874010848  MEMB      71              0.0000000000
      8045        71  SAPC      H18X            5.9418074535      -34.5558714857       -2.0595652961  MEMB      71              0.0000000000
      8046        71  SAPC      H18Y            6.3953516386      -36.2183593972       -2.3412703419  MEMB      71              0.0000000000
      8047        71  SAPC      H18Z            7.5131679524      -34.7921931924       -2.8455576302  MEMB      71              0.0000000000
      8048        72  OSM       N              22.2086687958      -26.3115537758       21.1042887916  MEMB      72              0.0000000000
      8049        72  OSM       C15            21.4732639405      -26.3528423792       22.4218689361  MEMB      72              0.0000000000
      8050        72  OSM       H15A           20.8153555323      -27.2088828361       22.4492763484  MEMB      72              0.0000000000
      8051        72  OSM       H15B           20.8254975000      -25.5084539018       22.6057348048  MEMB      72              0.0000000000
      8052        72  OSM       H15C           22.1506120449      -26.3080008590       23.2618623169  MEMB      72              0.0000000000
      8053        72  OSM       C14            21.1618364863      -26.1944162518       20.0558165486  MEMB      72              0.0000000000
      8054        72  OSM       H14A           21.7551725862      -26.1357564668       19.1553104926  MEMB      72              0.0000000000
      8055        72  OSM       H14B           20.6526014565      -25.2447648814       20.1282173922  MEMB      72              0.0000000000
      8056        72  OSM       H14C           20.5214647858      -27.0627507548       20.0076559005  MEMB      72              0.0000000000
      8057        72  OSM       C13            22.9912064625      -25.0607088939       21.1480176504  MEMB      72              0.0000000000
      8058        72  OSM       H13A           22.3193906118      -24.2450113678       21.3709545856  MEMB      72              0.0000000000
      8059        72  OSM       H13B           23.5670092118      -24.8349228250       20.2626522604  MEMB      72              0.0000000000
      8060        72  OSM       H13C           23.5947895907      -25.2013380297       22.0325010866  MEMB      72              0.0000000000
      8061        72  OSM       C12            23.0482022256      -27.5960338662       20.8529184476  MEMB      72              0.0000000000
      8062        72  OSM       H12A           23.1982875949      -27.5380316315       19.7849717300  MEMB      72              0.0000000000
      8063        72  OSM       H12B           22.3258548858      -28.3963036955       20.9175920545  MEMB      72              0.0000000000
      8064        72  OSM       C11            24.3892984779      -27.6241806260       21.6267536562  MEMB      72              0.0000000000
      8065        72  OSM       H11A           24.8443027770      -28.6332475645       21.5314860025  MEMB      72              0.0000000000
      8066        72  OSM       H11B           24.1152555393      -27.4501299701       22.6892638221  MEMB      72              0.0000000000
      8067        72  OSM       P              26.6310789466      -26.7859322278       20.8523886455  MEMB      72              0.0000000000
      8068        72  OSM       O13            27.5371022157      -26.2880191344       21.8859975506  MEMB      72              0.0000000000
      8069        72  OSM       O14            26.8420099790      -28.1659047370       20.2741240335  MEMB      72              0.0000000000
      8070        72  OSM       O11            26.6827672001      -25.8070001664       19.5283093029  MEMB      72              0.0000000000
      8071        72  OSM       O12            25.1930679755      -26.5121263350       21.2495164376  MEMB      72              0.0000000000
      8072        72  OSM       C1S            25.6815601236      -26.0557446775       18.5326989133  MEMB      72              0.0000000000
      8073        72  OSM       H1S            24.7836557371      -25.4434329052       18.7632699955  MEMB      72              0.0000000000
      8074        72  OSM       H1T            25.3908565432      -27.1258862093       18.4648051645  MEMB      72              0.0000000000
      8075        72  OSM       NF             24.8858826068      -25.8061619103       16.2172885555  MEMB      72              0.0000000000
      8076        72  OSM       HNF            24.8903651492      -26.6419581757       15.6737507859  MEMB      72              0.0000000000
      8077        72  OSM       C2S            26.0496967111      -25.6643609767       17.0580787094  MEMB      72              0.0000000000
      8078        72  OSM       H2S            26.4227299834      -24.6194391339       17.0005860518  MEMB      72              0.0000000000
      8079        72  OSM       C3S            27.0856550577      -26.7048464203       16.5982283695  MEMB      72              0.0000000000
      8080        72  OSM       H3S            26.5109265444      -27.6555893519       16.5884240180  MEMB      72              0.0000000000
      8081        72  OSM       O3             28.2854737949      -26.7060682496       17.3831329710  MEMB      72              0.0000000000
      8082        72  OSM       HO3            28.3022415128      -25.9409942486       17.9627712357  MEMB      72              0.0000000000
      8083        72  OSM       C4S            27.4095512576      -26.4084738456       15.1537866170  MEMB      72              0.0000000000
      8084        72  OSM       H4S            27.0846969014      -27.0828521149       14.3477572856  MEMB      72              0.0000000000
      8085        72  OSM       C5S            28.1502287708      -25.2981840107       14.8490152244  MEMB      72              0.0000000000
      8086        72  OSM       H5S            28.5142327147      -24.6701431111       15.6754929181  MEMB      72              0.0000000000
      8087        72  OSM       C6S            28.5373932169      -24.9323941436       13.4594920067  MEMB      72              0.0000000000
      8088        72  OSM       H6S            29.5720804189      -25.2772035275       13.2477140978  MEMB      72              0.0000000000
      8089        72  OSM       H6T            28.5392340216      -23.8215342982       13.4770475297  MEMB      72              0.0000000000
      8090        72  OSM       C7S            27.5675391409      -25.3034380334       12.3121665625  MEMB      72              0.0000000000
      8091        72  OSM       H7S            26.7325146850      -24.5786517873       12.4205176099  MEMB      72              0.0000000000
      8092        72  OSM       H7T            27.3673184213      -26.3961839392       12.3239703364  MEMB      72              0.0000000000
      8093        72  OSM       C8S            28.2329578687      -24.8374434587       10.9786505858  MEMB      72              0.0000000000
      8094        72  OSM       H8S            29.2551857645      -25.2478109393       10.8338416277  MEMB      72              0.0000000000
      8095        72  OSM       H8T            28.2554798301      -23.7294994277       11.0578563923  MEMB      72              0.0000000000
      8096        72  OSM       C9S            27.5148001960      -25.3478649907        9.7641659908  MEMB      72              0.0000000000
      8097        72  OSM       H9S            27.5074795258      -26.4578217449        9.7165916896  MEMB      72              0.0000000000
      8098        72  OSM       H9T            28.2302439234      -25.0573473860        8.9653787375  MEMB      72              0.0000000000
      8099        72  OSM       C10S           26.1453608173      -24.7576589577        9.6698211358  MEMB      72              0.0000000000
      8100        72  OSM       H10S           26.2384192689      -23.7072106937        9.3202222898  MEMB      72              0.0000000000
      8101        72  OSM       H10T           25.7442574354      -24.8118555781       10.7044706057  MEMB      72              0.0000000000
      8102        72  OSM       C11S           25.2268103135      -25.5658845202        8.7247832696  MEMB      72              0.0000000000
      8103        72  OSM       H11S           25.7142452265      -25.6769969698        7.7326230979  MEMB      72              0.0000000000
      8104        72  OSM       H11T           24.3455801125      -24.8897041768        8.7016638194  MEMB      72              0.0000000000
      8105        72  OSM       C12S           24.7290899830      -26.9318111680        9.1066453489  MEMB      72              0.0000000000
      8106        72  OSM       H12S           24.3131942568      -26.9517080927       10.1366727673  MEMB      72              0.0000000000
      8107        72  OSM       H12T           25.6527404033      -27.5361389016        9.2330516719  MEMB      72              0.0000000000
      8108        72  OSM       C13S           23.7648610133      -27.6858887272        8.1893377311  MEMB      72              0.0000000000
      8109        72  OSM       H13S           22.7606958202      -27.2163347455        8.2634486682  MEMB      72              0.0000000000
      8110        72  OSM       H13T           23.5724679825      -28.6944441956        8.6137450860  MEMB      72              0.0000000000
      8111        72  OSM       C14S           24.1874158521      -27.9331126874        6.7286046863  MEMB      72              0.0000000000
      8112        72  OSM       H14S           25.2323812662      -28.2986752131        6.6351585706  MEMB      72              0.0000000000
      8113        72  OSM       H14T           24.1921397494      -26.9242428215        6.2633306690  MEMB      72              0.0000000000
      8114        72  OSM       C15S           23.3570268994      -28.9844837581        5.9434649879  MEMB      72              0.0000000000
      8115        72  OSM       H15S           22.3226978680      -28.5830290192        6.0010707174  MEMB      72              0.0000000000
      8116        72  OSM       H15T           23.1808334813      -29.9790347668        6.4062228885  MEMB      72              0.0000000000
      8117        72  OSM       C16S           23.8499977073      -29.2305951593        4.4841923716  MEMB      72              0.0000000000
      8118        72  OSM       H16S           24.7424150715      -29.8879532193        4.5603018695  MEMB      72              0.0000000000
      8119        72  OSM       H16T           24.3116833093      -28.3153118969        4.0559128596  MEMB      72              0.0000000000
      8120        72  OSM       C17S           22.7003434840      -29.7795544395        3.6002222139  MEMB      72              0.0000000000
      8121        72  OSM       H17S           22.0012592457      -28.9602533137        3.3275535114  MEMB      72              0.0000000000
      8122        72  OSM       H17T           22.0262118286      -30.5043768809        4.1047012816  MEMB      72              0.0000000000
      8123        72  OSM       C18S           23.4154004540      -30.5690113534        2.4989792245  MEMB      72              0.0000000000
      8124        72  OSM       H18S           23.9765114507      -31.4335538672        2.9137583729  MEMB      72              0.0000000000
      8125        72  OSM       H18T           24.1135748733      -29.8501635607        2.0192586998  MEMB      72              0.0000000000
      8126        72  OSM       H18U           22.6210398664      -30.9575529203        1.8264113609  MEMB      72              0.0000000000
      8127        72  OSM       C1F            23.9046786093      -24.8986251824       16.2106228627  MEMB      72              0.0000000000
      8128        72  OSM       OF             23.9552987397      -23.8737723021       16.8307108908  MEMB      72              0.0000000000
      8129        72  OSM       C2F            22.6812559525      -25.2928528719       15.4383989600  MEMB      72              0.0000000000
      8130        72  OSM       H2F            22.3782504582      -26.2816517501       15.8443368374  MEMB      72              0.0000000000
      8131        72  OSM       H2G            23.0841767977      -25.6041159664       14.4509321558  MEMB      72              0.0000000000
      8132        72  OSM       C3F            21.5834300827      -24.2552558802       15.4940637085  MEMB      72              0.0000000000
      8133        72  OSM       H3F            21.9997360447      -23.2401517087       15.3192095591  MEMB      72              0.0000000000
      8134        72  OSM       H3G            21.1351860940      -24.2253920365       16.5101868105  MEMB      72              0.0000000000
      8135        72  OSM       C4F            20.4121941802      -24.4243761012       14.5806907483  MEMB      72              0.0000000000
      8136        72  OSM       H4F            19.5849874338      -23.6961602656       14.7212306252  MEMB      72              0.0000000000
      8137        72  OSM       H4G            19.9560489816      -25.4374173041       14.5806814766  MEMB      72              0.0000000000
      8138        72  OSM       C5F            20.8358686180      -24.2211265843       13.1164533104  MEMB      72              0.0000000000
      8139        72  OSM       H5F            19.9824828638      -24.5955057059       12.5115611566  MEMB      72              0.0000000000
      8140        72  OSM       H5G            21.7774429082      -24.7786014896       12.9241507325  MEMB      72              0.0000000000
      8141        72  OSM       C6F            21.2250963439      -22.8114317962       12.6910376359  MEMB      72              0.0000000000
      8142        72  OSM       H6F            22.1838479678      -22.4839733069       13.1469840565  MEMB      72              0.0000000000
      8143        72  OSM       H6G            20.4741160458      -22.0697583481       13.0378368762  MEMB      72              0.0000000000
      8144        72  OSM       C7F            21.4793603790      -22.4802594908       11.1690935055  MEMB      72              0.0000000000
      8145        72  OSM       H7F            21.8478304454      -21.4322911166       11.1513970469  MEMB      72              0.0000000000
      8146        72  OSM       H7G            20.4845652817      -22.4536663807       10.6751343585  MEMB      72              0.0000000000
      8147        72  OSM       C8F            22.4572282337      -23.3821286593       10.4150719587  MEMB      72              0.0000000000
      8148        72  OSM       H8F            23.4537046743      -23.4617098805       10.8998633743  MEMB      72              0.0000000000
      8149        72  OSM       H8G            22.7422478654      -22.8934051318        9.4589161213  MEMB      72              0.0000000000
      8150        72  OSM       C9F            21.7928729535      -24.6491518491        9.9817326753  MEMB      72              0.0000000000
      8151        72  OSM       H9F            22.1943492129      -25.4715773234       10.5920058063  MEMB      72              0.0000000000
      8152        72  OSM       C10F           20.9312275116      -24.8483970910        8.9557501412  MEMB      72              0.0000000000
      8153        72  OSM       H10F           20.4852686598      -25.8528631051        9.0023186540  MEMB      72              0.0000000000
      8154        72  OSM       C11F           20.3954137541      -23.8941586731        7.9554493549  MEMB      72              0.0000000000
      8155        72  OSM       H11F           20.7635542999      -22.8574152964        8.1102281261  MEMB      72              0.0000000000
      8156        72  OSM       H11G           19.3356480595      -23.6603294456        8.1932332098  MEMB      72              0.0000000000
      8157        72  OSM       C12F           20.5032093281      -24.2864394552        6.5703259226  MEMB      72              0.0000000000
      8158        72  OSM       H12F           19.9178763959      -23.5408308491        5.9908660909  MEMB      72              0.0000000000
      8159        72  OSM       H12G           20.0144506554      -25.2733772514        6.4240740277  MEMB      72              0.0000000000
      8160        72  OSM       C13F           21.8910167923      -24.3346826211        6.0306545530  MEMB      72              0.0000000000
      8161        72  OSM       H13F           22.3936045641      -25.2545884450        6.3987579849  MEMB      72              0.0000000000
      8162        72  OSM       H13G           22.4566650740      -23.4536290902        6.4022835389  MEMB      72              0.0000000000
      8163        72  OSM       C14F           21.9871975985      -24.4502405648        4.4623189862  MEMB      72              0.0000000000
      8164        72  OSM       H14F           21.8082152999      -23.4720441393        3.9669217901  MEMB      72              0.0000000000
      8165        72  OSM       H14G           21.3418193792      -25.2928945372        4.1340777465  MEMB      72              0.0000000000
      8166        72  OSM       C15F           23.3497330628      -25.0119328060        4.0463070437  MEMB      72              0.0000000000
      8167        72  OSM       H15F           23.2717111466      -25.4753356311        3.0395848819  MEMB      72              0.0000000000
      8168        72  OSM       H15G           23.4284216632      -25.9482428430        4.6391411878  MEMB      72              0.0000000000
      8169        72  OSM       C16F           24.4930013111      -24.0225865340        4.2601408671  MEMB      72              0.0000000000
      8170        72  OSM       H16F           25.2827633800      -24.4535873603        4.9119340189  MEMB      72              0.0000000000
      8171        72  OSM       H16G           24.0772304478      -23.1355546350        4.7841914830  MEMB      72              0.0000000000
      8172        72  OSM       C17F           25.2935258392      -23.6564978636        2.9849640954  MEMB      72              0.0000000000
      8173        72  OSM       H17F           26.0018418367      -22.8392656952        3.2394077433  MEMB      72              0.0000000000
      8174        72  OSM       H17G           24.6590313969      -23.2241946183        2.1819382333  MEMB      72              0.0000000000
      8175        72  OSM       C18F           26.0463919926      -24.8578432412        2.4245298922  MEMB      72              0.0000000000
      8176        72  OSM       H18F           26.7109355161      -24.4965418436        1.6107958250  MEMB      72              0.0000000000
      8177        72  OSM       H18G           25.3617184524      -25.6502115121        2.0534570181  MEMB      72              0.0000000000
      8178        72  OSM       H18H           26.7113500084      -25.1943731427        3.2484842995  MEMB      72              0.0000000000
      8179        73  OSM       N              16.3435254228       30.0376491553       21.7730559184  MEMB      73              0.0000000000
      8180        73  OSM       C15            15.9122951468       31.4388398702       22.2225990333  MEMB      73              0.0000000000
      8181        73  OSM       H15A           14.8383606167       31.3258626859       22.2052615355  MEMB      73              0.0000000000
      8182        73  OSM       H15B           16.2159782898       32.1803946950       21.4985319380  MEMB      73              0.0000000000
      8183        73  OSM       H15C           16.1861898698       31.7002452251       23.2340578321  MEMB      73              0.0000000000
      8184        73  OSM       C14            15.9720790354       29.0544673602       22.8504734027  MEMB      73              0.0000000000
      8185        73  OSM       H14A           16.4002024474       28.0773022917       22.6823703223  MEMB      73              0.0000000000
      8186        73  OSM       H14B           14.8948605854       28.9814690277       22.8763918116  MEMB      73              0.0000000000
      8187        73  OSM       H14C           16.2572606616       29.4263843257       23.8234839651  MEMB      73              0.0000000000
      8188        73  OSM       C13            15.6341859468       29.5922690014       20.5066923023  MEMB      73              0.0000000000
      8189        73  OSM       H13A           14.6098920378       29.3202316242       20.7145822420  MEMB      73              0.0000000000
      8190        73  OSM       H13B           16.1960401998       28.7344320362       20.1678182130  MEMB      73              0.0000000000
      8191        73  OSM       H13C           15.6515215137       30.4244501872       19.8185253158  MEMB      73              0.0000000000
      8192        73  OSM       C12            17.8023247183       29.9196901734       21.6929040700  MEMB      73              0.0000000000
      8193        73  OSM       H12A           18.0454097764       28.8693777813       21.6284574626  MEMB      73              0.0000000000
      8194        73  OSM       H12B           18.1522036737       30.2605415663       22.6561304596  MEMB      73              0.0000000000
      8195        73  OSM       C11            18.6089121822       30.6619089642       20.5811171166  MEMB      73              0.0000000000
      8196        73  OSM       H11A           18.2320036028       30.3086848509       19.5975045983  MEMB      73              0.0000000000
      8197        73  OSM       H11B           19.6813227266       30.4107175056       20.7265796897  MEMB      73              0.0000000000
      8198        73  OSM       P              19.8040568913       33.0262983214       20.3384051297  MEMB      73              0.0000000000
      8199        73  OSM       O13            19.7674761753       34.2769111468       21.1477152938  MEMB      73              0.0000000000
      8200        73  OSM       O14            21.0691659713       32.2492441474       20.3520172515  MEMB      73              0.0000000000
      8201        73  OSM       O11            19.5766357961       33.3713695950       18.8373601793  MEMB      73              0.0000000000
      8202        73  OSM       O12            18.5105209136       32.0884184646       20.6976603069  MEMB      73              0.0000000000
      8203        73  OSM       C1S            18.4688047362       33.1714508757       18.0195923084  MEMB      73              0.0000000000
      8204        73  OSM       H1S            17.6561368493       33.9058768683       18.2053619288  MEMB      73              0.0000000000
      8205        73  OSM       H1T            18.0776143146       32.1550571373       18.2392164446  MEMB      73              0.0000000000
      8206        73  OSM       NF             19.5775992374       32.1425435630       16.1463081449  MEMB      73              0.0000000000
      8207        73  OSM       HNF            20.5158010931       32.2848402481       15.8404685558  MEMB      73              0.0000000000
      8208        73  OSM       C2S            18.7940695737       33.3117653998       16.4947031026  MEMB      73              0.0000000000
      8209        73  OSM       H2S            17.8591470898       33.3716991285       15.8975019385  MEMB      73              0.0000000000
      8210        73  OSM       C3S            19.5537199994       34.6115997468       16.2896155192  MEMB      73              0.0000000000
      8211        73  OSM       H3S            20.5411087704       34.5169528762       16.7900418122  MEMB      73              0.0000000000
      8212        73  OSM       O3             18.8415144774       35.6858034281       16.8163021401  MEMB      73              0.0000000000
      8213        73  OSM       HO3            18.4969975032       35.2445063603       17.5961513756  MEMB      73              0.0000000000
      8214        73  OSM       C4S            19.8768055802       34.7903848179       14.8508109948  MEMB      73              0.0000000000
      8215        73  OSM       H4S            20.8621934099       34.3642825777       14.6111280466  MEMB      73              0.0000000000
      8216        73  OSM       C5S            19.0160228008       35.2090192408       13.8758254907  MEMB      73              0.0000000000
      8217        73  OSM       H5S            17.9910024182       35.5023408750       14.1465559412  MEMB      73              0.0000000000
      8218        73  OSM       C6S            19.2900285411       35.4203993000       12.4159063574  MEMB      73              0.0000000000
      8219        73  OSM       H6S            19.0417059339       36.4205855632       12.0008353106  MEMB      73              0.0000000000
      8220        73  OSM       H6T            18.5550086984       34.7883811504       11.8731175465  MEMB      73              0.0000000000
      8221        73  OSM       C7S            20.7835087117       35.2040401534       12.0094175808  MEMB      73              0.0000000000
      8222        73  OSM       H7S            21.1758505087       34.1717749318       12.1311458374  MEMB      73              0.0000000000
      8223        73  OSM       H7T            21.4249251089       35.8308144511       12.6652076948  MEMB      73              0.0000000000
      8224        73  OSM       C8S            21.1499237059       35.6363474144       10.5770351667  MEMB      73              0.0000000000
      8225        73  OSM       H8S            22.2374746656       35.7151096464       10.3640785749  MEMB      73              0.0000000000
      8226        73  OSM       H8T            20.7841165515       36.6667692787       10.3802183733  MEMB      73              0.0000000000
      8227        73  OSM       C9S            20.7213591951       34.6073994972        9.5386305591  MEMB      73              0.0000000000
      8228        73  OSM       H9S            21.1507824118       34.9831718378        8.5853664316  MEMB      73              0.0000000000
      8229        73  OSM       H9T            19.6155407672       34.5761512360        9.4361124917  MEMB      73              0.0000000000
      8230        73  OSM       C10S           21.2156686283       33.1817391276        9.6813536415  MEMB      73              0.0000000000
      8231        73  OSM       H10S           20.6725899486       32.7094965193       10.5277422461  MEMB      73              0.0000000000
      8232        73  OSM       H10T           22.2501145309       33.3414772993       10.0538131943  MEMB      73              0.0000000000
      8233        73  OSM       C11S           21.4676184907       32.4752447955        8.2954811049  MEMB      73              0.0000000000
      8234        73  OSM       H11S           22.0347812540       31.5298539668        8.4328971817  MEMB      73              0.0000000000
      8235        73  OSM       H11T           22.2123116891       33.1555199030        7.8296708084  MEMB      73              0.0000000000
      8236        73  OSM       C12S           20.1940959343       32.3056381673        7.5245516568  MEMB      73              0.0000000000
      8237        73  OSM       H12S           19.7999101348       33.2396659274        7.0700951405  MEMB      73              0.0000000000
      8238        73  OSM       H12T           19.3602369534       31.8905694909        8.1301249726  MEMB      73              0.0000000000
      8239        73  OSM       C13S           20.2854877002       31.3153102783        6.2986757260  MEMB      73              0.0000000000
      8240        73  OSM       H13S           19.2420511318       31.0501100036        6.0243960435  MEMB      73              0.0000000000
      8241        73  OSM       H13T           20.6005962526       30.3508316245        6.7512337267  MEMB      73              0.0000000000
      8242        73  OSM       C14S           21.0855738122       31.7026146124        5.1380348330  MEMB      73              0.0000000000
      8243        73  OSM       H14S           21.2466883492       30.8323742083        4.4664362282  MEMB      73              0.0000000000
      8244        73  OSM       H14T           22.0763606072       31.9768619242        5.5592842378  MEMB      73              0.0000000000
      8245        73  OSM       C15S           20.4560997929       32.9297501470        4.3610922172  MEMB      73              0.0000000000
      8246        73  OSM       H15S           20.0906255469       33.6414466041        5.1319614738  MEMB      73              0.0000000000
      8247        73  OSM       H15T           19.5665099452       32.5995303175        3.7832479250  MEMB      73              0.0000000000
      8248        73  OSM       C16S           21.4230239938       33.5672882269        3.4158831163  MEMB      73              0.0000000000
      8249        73  OSM       H16S           21.8172775675       32.8283890771        2.6858739877  MEMB      73              0.0000000000
      8250        73  OSM       H16T           22.1967947066       34.0011978514        4.0847030083  MEMB      73              0.0000000000
      8251        73  OSM       C17S           20.8918485939       34.7167942199        2.4928768696  MEMB      73              0.0000000000
      8252        73  OSM       H17S           21.8398818119       35.0740147473        2.0368639687  MEMB      73              0.0000000000
      8253        73  OSM       H17T           20.4436423353       35.5346305259        3.0966777746  MEMB      73              0.0000000000
      8254        73  OSM       C18S           19.9059743751       34.2644297275        1.4184712895  MEMB      73              0.0000000000
      8255        73  OSM       H18S           19.6721010000       35.1043119239        0.7298330607  MEMB      73              0.0000000000
      8256        73  OSM       H18T           19.0577266906       33.7422328764        1.9105154264  MEMB      73              0.0000000000
      8257        73  OSM       H18U           20.4630684125       33.5185154139        0.8121889130  MEMB      73              0.0000000000
      8258        73  OSM       C1F            19.0689549321       30.8919554442       16.1558005448  MEMB      73              0.0000000000
      8259        73  OSM       OF             17.9231458627       30.6551079310       16.5354530161  MEMB      73              0.0000000000
      8260        73  OSM       C2F            20.0005823976       29.8453876285       15.6704254273  MEMB      73              0.0000000000
      8261        73  OSM       H2F            19.9853816584       29.1286121329       16.5191439108  MEMB      73              0.0000000000
      8262        73  OSM       H2G            21.0591493774       30.0674189251       15.4165374154  MEMB      73              0.0000000000
      8263        73  OSM       C3F            19.3722747220       28.9770390475       14.6030616797  MEMB      73              0.0000000000
      8264        73  OSM       H3F            18.3424651011       28.6283655179       14.8316220715  MEMB      73              0.0000000000
      8265        73  OSM       H3G            19.9395381995       28.0219643630       14.6221656593  MEMB      73              0.0000000000
      8266        73  OSM       C4F            19.3536338534       29.7447129444       13.2252428408  MEMB      73              0.0000000000
      8267        73  OSM       H4F            20.0760707647       29.3204901197       12.4955574182  MEMB      73              0.0000000000
      8268        73  OSM       H4G            19.6161846913       30.8160172016       13.3582656811  MEMB      73              0.0000000000
      8269        73  OSM       C5F            17.9393108681       29.7001887242       12.5803417932  MEMB      73              0.0000000000
      8270        73  OSM       H5F            17.1320865217       29.8135833057       13.3352267857  MEMB      73              0.0000000000
      8271        73  OSM       H5G            17.6875655310       28.6718180084       12.2435948360  MEMB      73              0.0000000000
      8272        73  OSM       C6F            17.7510761790       30.7663573580       11.4795977709  MEMB      73              0.0000000000
      8273        73  OSM       H6F            18.2755210883       30.5491282913       10.5245633482  MEMB      73              0.0000000000
      8274        73  OSM       H6G            18.1098085449       31.7670586386       11.8024426072  MEMB      73              0.0000000000
      8275        73  OSM       C7F            16.2764424778       30.9393258853       11.1139999279  MEMB      73              0.0000000000
      8276        73  OSM       H7F            15.5914614387       30.8389182570       11.9829311888  MEMB      73              0.0000000000
      8277        73  OSM       H7G            15.9907581025       30.0438218245       10.5217357184  MEMB      73              0.0000000000
      8278        73  OSM       C8F            15.9206885973       32.2130632752       10.3419370246  MEMB      73              0.0000000000
      8279        73  OSM       H8F            16.6332642355       32.1714441825        9.4905707464  MEMB      73              0.0000000000
      8280        73  OSM       H8G            16.0565249841       33.1692444907       10.8911068299  MEMB      73              0.0000000000
      8281        73  OSM       C9F            14.5418644941       32.2025579020        9.8472196093  MEMB      73              0.0000000000
      8282        73  OSM       H9F            14.0108500625       32.6835318818       10.6818983649  MEMB      73              0.0000000000
      8283        73  OSM       C10F           13.9277298622       31.7672633232        8.6744785149  MEMB      73              0.0000000000
      8284        73  OSM       H10F           12.8937414818       32.0963064835        8.4939269373  MEMB      73              0.0000000000
      8285        73  OSM       C11F           14.4848039497       31.1259992076        7.4684849120  MEMB      73              0.0000000000
      8286        73  OSM       H11F           15.5330100009       30.7817875062        7.5992641120  MEMB      73              0.0000000000
      8287        73  OSM       H11G           14.4794700090       31.7034677937        6.5193688115  MEMB      73              0.0000000000
      8288        73  OSM       C12F           13.8589128126       29.8181068549        7.0318801790  MEMB      73              0.0000000000
      8289        73  OSM       H12F           12.7764204172       29.9998064906        6.8600760872  MEMB      73              0.0000000000
      8290        73  OSM       H12G           14.0072829625       29.0150706725        7.7851659719  MEMB      73              0.0000000000
      8291        73  OSM       C13F           14.4171550723       29.4095007966        5.5668384872  MEMB      73              0.0000000000
      8292        73  OSM       H13F           14.0308526037       30.1256961189        4.8104279397  MEMB      73              0.0000000000
      8293        73  OSM       H13G           13.9868360223       28.4175871995        5.3113893138  MEMB      73              0.0000000000
      8294        73  OSM       C14F           15.9091012322       29.1982309556        5.5036325103  MEMB      73              0.0000000000
      8295        73  OSM       H14F           16.2329141960       28.3376725617        6.1272551633  MEMB      73              0.0000000000
      8296        73  OSM       H14G           16.4707582140       30.1112231362        5.7957077658  MEMB      73              0.0000000000
      8297        73  OSM       C15F           16.3881588403       28.8790267647        4.0379256781  MEMB      73              0.0000000000
      8298        73  OSM       H15F           16.0867858624       29.6696113403        3.3178760615  MEMB      73              0.0000000000
      8299        73  OSM       H15G           15.8373075513       27.9701826742        3.7140625977  MEMB      73              0.0000000000
      8300        73  OSM       C16F           17.9441026812       28.6653853455        4.0731148871  MEMB      73              0.0000000000
      8301        73  OSM       H16F           18.1934293677       27.9099860319        4.8486989406  MEMB      73              0.0000000000
      8302        73  OSM       H16G           18.4512080649       29.5901622476        4.4223333408  MEMB      73              0.0000000000
      8303        73  OSM       C17F           18.5201262580       28.3412361063        2.7143142446  MEMB      73              0.0000000000
      8304        73  OSM       H17F           19.4589179345       27.7657665090        2.8620487813  MEMB      73              0.0000000000
      8305        73  OSM       H17G           18.7192802726       29.2819888951        2.1578582437  MEMB      73              0.0000000000
      8306        73  OSM       C18F           17.8087454730       27.4225661838        1.7092663168  MEMB      73              0.0000000000
      8307        73  OSM       H18F           17.5826458161       26.4524218817        2.2012206403  MEMB      73              0.0000000000
      8308        73  OSM       H18G           18.4697953050       27.3345242781        0.8206804516  MEMB      73              0.0000000000
      8309        73  OSM       H18H           16.8139411581       27.8027977341        1.3928652447  MEMB      73              0.0000000000
      8310        74  OSM       N             -32.0587011693       20.9503380003       20.4585099957  MEMB      74              0.0000000000
      8311        74  OSM       C15           -32.6625322043       21.2984810423       19.1030572371  MEMB      74              0.0000000000
      8312        74  OSM       H15A          -33.6998733431       21.0446268620       19.2639342903  MEMB      74              0.0000000000
      8313        74  OSM       H15B          -32.1020659388       20.7949426584       18.3292830402  MEMB      74              0.0000000000
      8314        74  OSM       H15C          -32.5570387984       22.3392517123       18.8346033706  MEMB      74              0.0000000000
      8315        74  OSM       C14           -30.6189011410       21.4315382155       20.4764678171  MEMB      74              0.0000000000
      8316        74  OSM       H14A          -30.5547458661       22.5095648458       20.4884216465  MEMB      74              0.0000000000
      8317        74  OSM       H14B          -30.1693581302       21.0361820065       19.5775771303  MEMB      74              0.0000000000
      8318        74  OSM       H14C          -30.0271505278       21.1092897576       21.3204980981  MEMB      74              0.0000000000
      8319        74  OSM       C13           -32.8527280332       21.5612816184       21.4457329061  MEMB      74              0.0000000000
      8320        74  OSM       H13A          -33.7935419829       21.1159623465       21.7337604215  MEMB      74              0.0000000000
      8321        74  OSM       H13B          -33.0293853295       22.6267353765       21.4462088185  MEMB      74              0.0000000000
      8322        74  OSM       H13C          -32.2882175022       21.5641726989       22.3664497269  MEMB      74              0.0000000000
      8323        74  OSM       C12           -32.1396707654       19.4522839134       20.7161338468  MEMB      74              0.0000000000
      8324        74  OSM       H12A          -31.5188361765       18.8985220290       20.0274305283  MEMB      74              0.0000000000
      8325        74  OSM       H12B          -33.1765047337       19.1778351649       20.5894328337  MEMB      74              0.0000000000
      8326        74  OSM       C11           -31.5390664316       19.0233072637       22.0893377925  MEMB      74              0.0000000000
      8327        74  OSM       H11A          -32.0587418941       18.0443769281       22.1664988615  MEMB      74              0.0000000000
      8328        74  OSM       H11B          -31.7739964843       19.6094493563       23.0034309272  MEMB      74              0.0000000000
      8329        74  OSM       P             -29.5080183322       17.4714577465       21.3288731297  MEMB      74              0.0000000000
      8330        74  OSM       O13           -28.0667542654       17.7375353957       21.1484701582  MEMB      74              0.0000000000
      8331        74  OSM       O14           -29.8119053797       16.3763761309       22.3219368136  MEMB      74              0.0000000000
      8332        74  OSM       O11           -30.1951274307       17.4056079162       19.9148583148  MEMB      74              0.0000000000
      8333        74  OSM       O12           -30.1343521614       18.8079382735       21.9966219905  MEMB      74              0.0000000000
      8334        74  OSM       C1S           -29.5984756669       16.4538172534       18.9722026498  MEMB      74              0.0000000000
      8335        74  OSM       H1S           -30.1469245319       15.5065390505       19.1624359564  MEMB      74              0.0000000000
      8336        74  OSM       H1T           -28.5020564682       16.4000151905       19.1433497342  MEMB      74              0.0000000000
      8337        74  OSM       NF            -29.4678984957       15.9173296098       16.4988319880  MEMB      74              0.0000000000
      8338        74  OSM       HNF           -28.7291012473       16.1412476655       15.8679210933  MEMB      74              0.0000000000
      8339        74  OSM       C2S           -29.8317458575       16.9111450499       17.4996538384  MEMB      74              0.0000000000
      8340        74  OSM       H2S           -30.9310144544       17.0718295983       17.5101439963  MEMB      74              0.0000000000
      8341        74  OSM       C3S           -28.9693807007       18.1436666522       17.1945687478  MEMB      74              0.0000000000
      8342        74  OSM       H3S           -27.8983931302       17.8482132622       17.1982943583  MEMB      74              0.0000000000
      8343        74  OSM       O3            -29.1641733595       19.1746206974       18.1158419694  MEMB      74              0.0000000000
      8344        74  OSM       HO3           -29.7516694019       18.9101705868       18.8275403304  MEMB      74              0.0000000000
      8345        74  OSM       C4S           -29.3467726331       18.6551082730       15.8279052941  MEMB      74              0.0000000000
      8346        74  OSM       H4S           -30.3989681426       18.9747971751       15.8017613096  MEMB      74              0.0000000000
      8347        74  OSM       C5S           -28.4794828833       18.7470905106       14.7747302249  MEMB      74              0.0000000000
      8348        74  OSM       H5S           -27.4892424140       18.2813841046       14.8867176339  MEMB      74              0.0000000000
      8349        74  OSM       C6S           -28.8774666507       19.2802322396       13.4155812166  MEMB      74              0.0000000000
      8350        74  OSM       H6S           -28.1057107720       19.9988649150       13.0658943382  MEMB      74              0.0000000000
      8351        74  OSM       H6T           -29.8507623926       19.8158653540       13.4049291721  MEMB      74              0.0000000000
      8352        74  OSM       C7S           -29.0087737267       18.1633967000       12.3738459579  MEMB      74              0.0000000000
      8353        74  OSM       H7S           -29.5104976611       17.2679457809       12.7990068720  MEMB      74              0.0000000000
      8354        74  OSM       H7T           -27.9931971269       17.8418900604       12.0583164074  MEMB      74              0.0000000000
      8355        74  OSM       C8S           -29.9231869247       18.5073099260       11.0984974002  MEMB      74              0.0000000000
      8356        74  OSM       H8S           -30.8993399866       18.9720552231       11.3543450311  MEMB      74              0.0000000000
      8357        74  OSM       H8T           -30.0051839048       17.5097647759       10.6163139086  MEMB      74              0.0000000000
      8358        74  OSM       C9S           -29.2365702706       19.5559584005       10.2036447420  MEMB      74              0.0000000000
      8359        74  OSM       H9S           -28.1643923555       19.2944699498       10.0756627494  MEMB      74              0.0000000000
      8360        74  OSM       H9T           -29.2743907121       20.5795613640       10.6339090745  MEMB      74              0.0000000000
      8361        74  OSM       C10S          -29.7589755752       19.5737200553        8.7359454852  MEMB      74              0.0000000000
      8362        74  OSM       H10S          -29.5216379823       20.4938262957        8.1602753359  MEMB      74              0.0000000000
      8363        74  OSM       H10T          -30.8628135627       19.6404864218        8.8427400540  MEMB      74              0.0000000000
      8364        74  OSM       C11S          -29.3587093038       18.4361646386        7.8079261429  MEMB      74              0.0000000000
      8365        74  OSM       H11S          -29.8320982675       17.5291315776        8.2409564570  MEMB      74              0.0000000000
      8366        74  OSM       H11T          -28.2526434757       18.3348361310        7.8338477464  MEMB      74              0.0000000000
      8367        74  OSM       C12S          -29.8657285513       18.6062316328        6.3711841613  MEMB      74              0.0000000000
      8368        74  OSM       H12S          -29.4639055975       19.4399789220        5.7565905814  MEMB      74              0.0000000000
      8369        74  OSM       H12T          -30.9565915797       18.7535849285        6.5216031523  MEMB      74              0.0000000000
      8370        74  OSM       C13S          -29.6636291847       17.3590756743        5.5141002710  MEMB      74              0.0000000000
      8371        74  OSM       H13S          -30.1652532107       16.5032519568        6.0143605687  MEMB      74              0.0000000000
      8372        74  OSM       H13T          -28.5651115755       17.2260184466        5.4147232115  MEMB      74              0.0000000000
      8373        74  OSM       C14S          -30.1166149649       17.4879632190        4.0829986917  MEMB      74              0.0000000000
      8374        74  OSM       H14S          -30.4136588318       18.5258364763        3.8205002494  MEMB      74              0.0000000000
      8375        74  OSM       H14T          -31.0768803084       16.9296537344        4.0605951722  MEMB      74              0.0000000000
      8376        74  OSM       C15S          -29.2227720518       16.7606685511        3.0508233726  MEMB      74              0.0000000000
      8377        74  OSM       H15S          -29.8748093939       16.5208983177        2.1838298679  MEMB      74              0.0000000000
      8378        74  OSM       H15T          -28.9134365496       15.8321342019        3.5766152672  MEMB      74              0.0000000000
      8379        74  OSM       C16S          -27.9654216478       17.5820301888        2.6337439109  MEMB      74              0.0000000000
      8380        74  OSM       H16S          -27.0552635577       17.3982849625        3.2438026298  MEMB      74              0.0000000000
      8381        74  OSM       H16T          -28.3719338453       18.6152569859        2.6726160450  MEMB      74              0.0000000000
      8382        74  OSM       C17S          -27.5591235525       17.1720385767        1.1869012332  MEMB      74              0.0000000000
      8383        74  OSM       H17S          -27.6384619382       16.0640943723        1.1648508353  MEMB      74              0.0000000000
      8384        74  OSM       H17T          -26.5181972818       17.5290401586        1.0341154877  MEMB      74              0.0000000000
      8385        74  OSM       C18S          -28.4014447207       17.7825855582       -0.0010893239  MEMB      74              0.0000000000
      8386        74  OSM       H18S          -29.4893178019       17.5580496455        0.0198051976  MEMB      74              0.0000000000
      8387        74  OSM       H18T          -28.0611788792       17.3468719442       -0.9647769044  MEMB      74              0.0000000000
      8388        74  OSM       H18U          -28.3836614017       18.8775687346       -0.1882175727  MEMB      74              0.0000000000
      8389        74  OSM       C1F           -30.0905760988       14.6950464095       16.3502661646  MEMB      74              0.0000000000
      8390        74  OSM       OF            -30.5459736217       14.0427840772       17.3216572287  MEMB      74              0.0000000000
      8391        74  OSM       C2F           -29.9981386021       14.1409775690       14.9800405691  MEMB      74              0.0000000000
      8392        74  OSM       H2F           -30.1522303022       13.0510258116       15.1303137978  MEMB      74              0.0000000000
      8393        74  OSM       H2G           -28.9543543283       14.3543116023       14.6648836811  MEMB      74              0.0000000000
      8394        74  OSM       C3F           -31.0803159569       14.6715532888       14.0476823046  MEMB      74              0.0000000000
      8395        74  OSM       H3F           -31.1456789321       15.7714340911       14.1901986164  MEMB      74              0.0000000000
      8396        74  OSM       H3G           -32.0531203916       14.2402735417       14.3670100335  MEMB      74              0.0000000000
      8397        74  OSM       C4F           -30.8261941987       14.4014953754       12.5516117883  MEMB      74              0.0000000000
      8398        74  OSM       H4F           -30.6300513932       13.3080687642       12.5679463302  MEMB      74              0.0000000000
      8399        74  OSM       H4G           -29.9623869976       15.0284986027       12.2433510886  MEMB      74              0.0000000000
      8400        74  OSM       C5F           -32.0763221040       14.5769219950       11.6849825339  MEMB      74              0.0000000000
      8401        74  OSM       H5F           -32.4897671760       15.5453232134       12.0393604711  MEMB      74              0.0000000000
      8402        74  OSM       H5G           -32.7705111690       13.7342241971       11.8906108073  MEMB      74              0.0000000000
      8403        74  OSM       C6F           -31.7222316236       14.6109063499       10.1718283413  MEMB      74              0.0000000000
      8404        74  OSM       H6F           -31.2871250578       13.5981313622       10.0329384052  MEMB      74              0.0000000000
      8405        74  OSM       H6G           -30.9302102054       15.2728847614        9.7609662291  MEMB      74              0.0000000000
      8406        74  OSM       C7F           -33.0335103655       14.6336445628        9.2735519712  MEMB      74              0.0000000000
      8407        74  OSM       H7F           -33.4700665177       15.6548027301        9.2423110159  MEMB      74              0.0000000000
      8408        74  OSM       H7G           -33.7637353155       13.9431674423        9.7471905049  MEMB      74              0.0000000000
      8409        74  OSM       C8F           -32.7378240070       14.1643448536        7.8221824922  MEMB      74              0.0000000000
      8410        74  OSM       H8F           -32.1632487247       13.2134745162        7.8167386235  MEMB      74              0.0000000000
      8411        74  OSM       H8G           -32.1944275732       14.9429832577        7.2453262286  MEMB      74              0.0000000000
      8412        74  OSM       C9F           -34.0932881201       13.8860217244        7.1601598431  MEMB      74              0.0000000000
      8413        74  OSM       H9F           -34.5620033869       12.9446850971        7.4829465805  MEMB      74              0.0000000000
      8414        74  OSM       C10F          -34.8046721672       14.7747259896        6.4068197898  MEMB      74              0.0000000000
      8415        74  OSM       H10F          -35.7272055046       14.4126121547        5.9295296848  MEMB      74              0.0000000000
      8416        74  OSM       C11F          -34.3021368150       16.2326788451        6.1903506413  MEMB      74              0.0000000000
      8417        74  OSM       H11F          -33.4809272657       16.5511059302        6.8675070373  MEMB      74              0.0000000000
      8418        74  OSM       H11G          -35.1859571758       16.8574424769        6.4410557800  MEMB      74              0.0000000000
      8419        74  OSM       C12F          -33.9538156530       16.7816725295        4.7870056387  MEMB      74              0.0000000000
      8420        74  OSM       H12F          -33.0819813912       16.1877139902        4.4385246485  MEMB      74              0.0000000000
      8421        74  OSM       H12G          -33.6464111921       17.8491350329        4.7683725442  MEMB      74              0.0000000000
      8422        74  OSM       C13F          -35.0890809009       16.4855789843        3.7119244563  MEMB      74              0.0000000000
      8423        74  OSM       H13F          -35.9703152005       17.1312467871        3.9140656907  MEMB      74              0.0000000000
      8424        74  OSM       H13G          -35.5094995990       15.4572983504        3.7263510480  MEMB      74              0.0000000000
      8425        74  OSM       C14F          -34.6189007348       16.7265137081        2.2812412163  MEMB      74              0.0000000000
      8426        74  OSM       H14F          -35.5348814282       16.6645355856        1.6555748311  MEMB      74              0.0000000000
      8427        74  OSM       H14G          -33.9279192941       15.9406373369        1.9080599685  MEMB      74              0.0000000000
      8428        74  OSM       C15F          -34.0024330596       18.0872583986        1.9145211248  MEMB      74              0.0000000000
      8429        74  OSM       H15F          -33.5650526314       18.5236993264        2.8378519657  MEMB      74              0.0000000000
      8430        74  OSM       H15G          -34.7196720454       18.9004118081        1.6723011318  MEMB      74              0.0000000000
      8431        74  OSM       C16F          -32.9687011191       18.1078874650        0.8393171914  MEMB      74              0.0000000000
      8432        74  OSM       H16F          -32.4768795547       17.1143870324        0.7659039261  MEMB      74              0.0000000000
      8433        74  OSM       H16G          -32.1514601287       18.7625567593        1.2105940340  MEMB      74              0.0000000000
      8434        74  OSM       C17F          -33.5248901827       18.5540146325       -0.5298375476  MEMB      74              0.0000000000
      8435        74  OSM       H17F          -34.1113087693       19.4957690328       -0.4703991314  MEMB      74              0.0000000000
      8436        74  OSM       H17G          -34.2649995897       17.8049072611       -0.8839527862  MEMB      74              0.0000000000
      8437        74  OSM       C18F          -32.4970920690       18.7854176146       -1.6021376358  MEMB      74              0.0000000000
      8438        74  OSM       H18F          -31.7590951212       19.5434405974       -1.2628976121  MEMB      74              0.0000000000
      8439        74  OSM       H18G          -32.9914756336       19.2370898199       -2.4886462675  MEMB      74              0.0000000000
      8440        74  OSM       H18H          -32.0500098147       17.8340213393       -1.9616953955  MEMB      74              0.0000000000
      8441        75  SAPC      N              -0.6652057618      -36.5026202625       18.7021645249  MEMB      75              0.0000000000
      8442        75  SAPC      C12            -0.9493456489      -35.6262072982       19.8403418423  MEMB      75              0.0000000000
      8443        75  SAPC      H12A           -1.2599606203      -34.6189339007       19.6051425762  MEMB      75              0.0000000000
      8444        75  SAPC      H12B           -0.0220632928      -35.5213132542       20.3839818579  MEMB      75              0.0000000000
      8445        75  SAPC      C13            -1.7540809667      -36.2829313207       17.7187145019  MEMB      75              0.0000000000
      8446        75  SAPC      H13A           -2.7213685875      -36.5935990877       18.0851026348  MEMB      75              0.0000000000
      8447        75  SAPC      H13B           -1.7879241255      -35.2670757852       17.3536224190  MEMB      75              0.0000000000
      8448        75  SAPC      H13C           -1.5766823892      -36.9585007034       16.8949816420  MEMB      75              0.0000000000
      8449        75  SAPC      C14             0.6627445312      -36.1420924275       18.1109791244  MEMB      75              0.0000000000
      8450        75  SAPC      H14A            0.5572699367      -35.1810298943       17.6296958024  MEMB      75              0.0000000000
      8451        75  SAPC      H14B            1.5791723237      -36.2188621551       18.6772532344  MEMB      75              0.0000000000
      8452        75  SAPC      H14C            0.8023553331      -36.8091727434       17.2731769604  MEMB      75              0.0000000000
      8453        75  SAPC      C15            -0.6173270723      -37.9841751960       19.1359294996  MEMB      75              0.0000000000
      8454        75  SAPC      H15A           -0.5457295567      -38.6965804008       18.3273796935  MEMB      75              0.0000000000
      8455        75  SAPC      H15B            0.1410469423      -38.1808399881       19.8792948356  MEMB      75              0.0000000000
      8456        75  SAPC      H15C           -1.5763579300      -38.2427938280       19.5599294734  MEMB      75              0.0000000000
      8457        75  SAPC      C11            -2.0155903928      -36.1135397959       20.8408362313  MEMB      75              0.0000000000
      8458        75  SAPC      H11A           -2.0493079085      -35.2983163151       21.5948884628  MEMB      75              0.0000000000
      8459        75  SAPC      H11B           -1.6554875134      -36.8703943669       21.5700947730  MEMB      75              0.0000000000
      8460        75  SAPC      P              -4.5511297135      -36.6317061132       21.1686387281  MEMB      75              0.0000000000
      8461        75  SAPC      O13            -4.8766019578      -38.0445370064       21.1265228372  MEMB      75              0.0000000000
      8462        75  SAPC      O14            -4.2696711305      -36.0817928884       22.5267389721  MEMB      75              0.0000000000
      8463        75  SAPC      O12            -3.3288254599      -36.2983825574       20.2147843152  MEMB      75              0.0000000000
      8464        75  SAPC      O11            -5.6931740311      -35.7589488821       20.6143493846  MEMB      75              0.0000000000
      8465        75  SAPC      C1             -5.9485095322      -35.4725757556       19.2555513689  MEMB      75              0.0000000000
      8466        75  SAPC      HA             -6.8201484956      -34.7966614179       19.1224865001  MEMB      75              0.0000000000
      8467        75  SAPC      HB             -4.9953034414      -35.1120142912       18.8131548602  MEMB      75              0.0000000000
      8468        75  SAPC      C2             -6.3537646315      -36.7347304229       18.3731726079  MEMB      75              0.0000000000
      8469        75  SAPC      HS             -7.3620098834      -37.0931828757       18.6719602064  MEMB      75              0.0000000000
      8470        75  SAPC      O21            -5.2371116484      -37.6262704104       18.3559018651  MEMB      75              0.0000000000
      8471        75  SAPC      C21            -5.4375829142      -38.7035516194       17.6525639712  MEMB      75              0.0000000000
      8472        75  SAPC      O22            -6.4530753745      -39.1159755993       17.1027387156  MEMB      75              0.0000000000
      8473        75  SAPC      C22            -4.0918691646      -39.4130893015       17.4367102455  MEMB      75              0.0000000000
      8474        75  SAPC      H2R            -3.3252136558      -38.7202663020       17.8448239704  MEMB      75              0.0000000000
      8475        75  SAPC      H2S            -3.8269597815      -40.4291842987       17.7996078949  MEMB      75              0.0000000000
      8476        75  SAPC      C3             -6.5187461642      -36.1213769695       16.9286627221  MEMB      75              0.0000000000
      8477        75  SAPC      HX             -7.3278158880      -35.3703104742       17.0536702744  MEMB      75              0.0000000000
      8478        75  SAPC      HY             -6.8240373341      -36.8767152497       16.1732935475  MEMB      75              0.0000000000
      8479        75  SAPC      O31            -5.2974190711      -35.5959740877       16.5034251451  MEMB      75              0.0000000000
      8480        75  SAPC      C31            -5.3245531320      -34.6467572521       15.6197072625  MEMB      75              0.0000000000
      8481        75  SAPC      O32            -6.3033359715      -34.0638719654       15.1453257271  MEMB      75              0.0000000000
      8482        75  SAPC      C32            -3.8127407614      -34.4059568101       15.3837430177  MEMB      75              0.0000000000
      8483        75  SAPC      H2X            -3.1587837109      -35.2814419672       15.5842099341  MEMB      75              0.0000000000
      8484        75  SAPC      H2Y            -3.5004854266      -33.6121550089       16.0955690357  MEMB      75              0.0000000000
      8485        75  SAPC      C23            -3.7910136958      -39.4978618508       15.9779005040  MEMB      75              0.0000000000
      8486        75  SAPC      H3R            -3.6384599178      -38.5574719650       15.4063103739  MEMB      75              0.0000000000
      8487        75  SAPC      H3S            -4.7007635832      -39.9047138269       15.4868328103  MEMB      75              0.0000000000
      8488        75  SAPC      C24            -2.5297595711      -40.4034265127       15.6376649615  MEMB      75              0.0000000000
      8489        75  SAPC      H4R            -2.5134564237      -40.5795026531       14.5408276754  MEMB      75              0.0000000000
      8490        75  SAPC      H4S            -2.6840554587      -41.3974231135       16.1093473411  MEMB      75              0.0000000000
      8491        75  SAPC      C25            -1.2726668723      -39.8319195029       16.2113133642  MEMB      75              0.0000000000
      8492        75  SAPC      H5R            -0.9127885190      -40.1709241919       17.1939440294  MEMB      75              0.0000000000
      8493        75  SAPC      C26            -0.4002899947      -39.0921924064       15.5375451204  MEMB      75              0.0000000000
      8494        75  SAPC      H6R             0.4346670906      -38.6852621881       16.1268276391  MEMB      75              0.0000000000
      8495        75  SAPC      C27            -0.5693424048      -38.6553870570       14.0872686254  MEMB      75              0.0000000000
      8496        75  SAPC      H7R            -1.5509498998      -38.9700708519       13.6728516785  MEMB      75              0.0000000000
      8497        75  SAPC      H7S             0.2833966570      -39.0947798806       13.5268303921  MEMB      75              0.0000000000
      8498        75  SAPC      C28            -0.4834174948      -37.1289322188       14.0379896987  MEMB      75              0.0000000000
      8499        75  SAPC      H8R            -0.8656789584      -36.5963988581       14.9213265777  MEMB      75              0.0000000000
      8500        75  SAPC      C29             0.1420645905      -36.3809435160       13.1609839841  MEMB      75              0.0000000000
      8501        75  SAPC      H9R            -0.0099622354      -35.2917312366       13.1834402091  MEMB      75              0.0000000000
      8502        75  SAPC      C210            0.9021244572      -36.8275800323       11.9620531005  MEMB      75              0.0000000000
      8503        75  SAPC      H10R            1.5945249345      -37.6680839629       12.1821795190  MEMB      75              0.0000000000
      8504        75  SAPC      H10S            1.4934770641      -35.9441047666       11.6394164281  MEMB      75              0.0000000000
      8505        75  SAPC      C211            0.0597609186      -37.2817954301       10.7777636390  MEMB      75              0.0000000000
      8506        75  SAPC      H11R           -0.4566350464      -38.2334526009       10.9718865525  MEMB      75              0.0000000000
      8507        75  SAPC      C212           -0.0579114257      -36.6938851903        9.5372704195  MEMB      75              0.0000000000
      8508        75  SAPC      H12R           -0.8029808923      -37.0409623083        8.8062367115  MEMB      75              0.0000000000
      8509        75  SAPC      C213            0.6497951734      -35.4451578861        9.0208054822  MEMB      75              0.0000000000
      8510        75  SAPC      H13R            1.2333467305      -35.8339879054        8.1590641106  MEMB      75              0.0000000000
      8511        75  SAPC      H13S            1.3715357267      -35.1588444669        9.8154359190  MEMB      75              0.0000000000
      8512        75  SAPC      C214           -0.2285279313      -34.3062682133        8.5250663857  MEMB      75              0.0000000000
      8513        75  SAPC      H14R           -0.4726761447      -33.5181402013        9.2525592895  MEMB      75              0.0000000000
      8514        75  SAPC      C215           -0.8237756977      -34.1967539840        7.3177606670  MEMB      75              0.0000000000
      8515        75  SAPC      H15R           -1.3352694350      -33.2743227633        7.0055196932  MEMB      75              0.0000000000
      8516        75  SAPC      C216           -0.6406035012      -35.2850217518        6.2654799105  MEMB      75              0.0000000000
      8517        75  SAPC      H16R            0.0724668080      -36.0743817643        6.5860460209  MEMB      75              0.0000000000
      8518        75  SAPC      H16S           -0.3456182338      -34.9130963125        5.2610015431  MEMB      75              0.0000000000
      8519        75  SAPC      C217           -1.9602922722      -36.0554928161        5.9699962276  MEMB      75              0.0000000000
      8520        75  SAPC      H17R           -2.2751841022      -36.7163345500        6.8057307040  MEMB      75              0.0000000000
      8521        75  SAPC      H17S           -1.8036729978      -36.7304016293        5.1014973359  MEMB      75              0.0000000000
      8522        75  SAPC      C218           -3.1634966975      -35.2075756507        5.5441841245  MEMB      75              0.0000000000
      8523        75  SAPC      H18R           -3.3383154015      -34.4518685446        6.3395870738  MEMB      75              0.0000000000
      8524        75  SAPC      H18S           -4.1032951607      -35.7865426999        5.4181005769  MEMB      75              0.0000000000
      8525        75  SAPC      C219           -2.8664876873      -34.4997658454        4.2514093118  MEMB      75              0.0000000000
      8526        75  SAPC      H19R           -1.7849151559      -34.2992355113        4.0954939475  MEMB      75              0.0000000000
      8527        75  SAPC      H19S           -3.2713999674      -33.4805524287        4.4290936176  MEMB      75              0.0000000000
      8528        75  SAPC      C220           -3.5681533978      -34.9981666343        2.9675956068  MEMB      75              0.0000000000
      8529        75  SAPC      H20R           -3.2494486297      -36.0613672139        2.9190891397  MEMB      75              0.0000000000
      8530        75  SAPC      H20S           -3.1326691634      -34.4514692292        2.1039997879  MEMB      75              0.0000000000
      8531        75  SAPC      H20T           -4.6545470787      -34.7766795011        3.0383989653  MEMB      75              0.0000000000
      8532        75  SAPC      C33            -3.6834217714      -33.8429279052       13.9697435207  MEMB      75              0.0000000000
      8533        75  SAPC      H3X            -2.5899994753      -33.6671542823       13.8811295889  MEMB      75              0.0000000000
      8534        75  SAPC      H3Y            -4.1622084208      -32.8434328985       13.8916799448  MEMB      75              0.0000000000
      8535        75  SAPC      C34            -4.1239824874      -34.8421422092       12.9009070443  MEMB      75              0.0000000000
      8536        75  SAPC      H4X            -5.2339423784      -34.8037280242       12.8720179477  MEMB      75              0.0000000000
      8537        75  SAPC      H4Y            -3.7810434848      -35.8094043208       13.3264863653  MEMB      75              0.0000000000
      8538        75  SAPC      C35            -3.5375293131      -34.5878980304       11.4393679439  MEMB      75              0.0000000000
      8539        75  SAPC      H5X            -2.4386891857      -34.5615352822       11.6011592604  MEMB      75              0.0000000000
      8540        75  SAPC      H5Y            -3.9077268515      -33.5989865769       11.0939280026  MEMB      75              0.0000000000
      8541        75  SAPC      C36            -3.7419182808      -35.7095875811       10.4068482579  MEMB      75              0.0000000000
      8542        75  SAPC      H6X            -3.0735940746      -36.5710970122       10.6200745524  MEMB      75              0.0000000000
      8543        75  SAPC      H6Y            -3.2782047431      -35.3368192076        9.4685874306  MEMB      75              0.0000000000
      8544        75  SAPC      C37            -5.2012103374      -35.9680751982       10.1380677090  MEMB      75              0.0000000000
      8545        75  SAPC      H7X            -5.8087125888      -35.0548048286        9.9614345698  MEMB      75              0.0000000000
      8546        75  SAPC      H7Y            -5.6882979286      -36.3830612665       11.0462826708  MEMB      75              0.0000000000
      8547        75  SAPC      C38            -5.4933789565      -36.9685995730        8.9805853239  MEMB      75              0.0000000000
      8548        75  SAPC      H8X            -4.8426983905      -37.8668699133        8.9169740829  MEMB      75              0.0000000000
      8549        75  SAPC      H8Y            -5.3293360981      -36.4545636176        8.0094113363  MEMB      75              0.0000000000
      8550        75  SAPC      C39            -6.9052182796      -37.6430224045        8.9415941286  MEMB      75              0.0000000000
      8551        75  SAPC      H9X            -7.6806327874      -36.8543849418        8.8362192883  MEMB      75              0.0000000000
      8552        75  SAPC      H9Y            -7.0042572741      -38.2502265520        9.8666973460  MEMB      75              0.0000000000
      8553        75  SAPC      C310           -7.0330165673      -38.6127652405        7.7346053339  MEMB      75              0.0000000000
      8554        75  SAPC      H10X           -8.0226996533      -39.1123260935        7.8073185871  MEMB      75              0.0000000000
      8555        75  SAPC      H10Y           -6.2877692812      -39.3909202794        8.0055335067  MEMB      75              0.0000000000
      8556        75  SAPC      C311           -6.8561420824      -38.0061126131        6.3534358198  MEMB      75              0.0000000000
      8557        75  SAPC      H11X           -6.1064863746      -38.4592901125        5.6700850675  MEMB      75              0.0000000000
      8558        75  SAPC      H11Y           -6.5482465370      -36.9390884652        6.3847545024  MEMB      75              0.0000000000
      8559        75  SAPC      C312           -8.1468461921      -37.9237192243        5.5119359603  MEMB      75              0.0000000000
      8560        75  SAPC      H12X           -8.8667299843      -37.3527572867        6.1365088772  MEMB      75              0.0000000000
      8561        75  SAPC      H12Y           -8.4966502498      -38.9777904919        5.4820721379  MEMB      75              0.0000000000
      8562        75  SAPC      C313           -8.0035369089      -37.3069035695        4.1260799224  MEMB      75              0.0000000000
      8563        75  SAPC      H13X           -7.4819314485      -36.3479449986        4.3325913896  MEMB      75              0.0000000000
      8564        75  SAPC      H13Y           -9.0255816844      -37.1609321264        3.7156692462  MEMB      75              0.0000000000
      8565        75  SAPC      C314           -7.2153100873      -38.2810661064        3.2024140740  MEMB      75              0.0000000000
      8566        75  SAPC      H14X           -7.9243482968      -39.1207021673        3.0393299550  MEMB      75              0.0000000000
      8567        75  SAPC      H14Y           -6.2213741509      -38.5126592330        3.6414789113  MEMB      75              0.0000000000
      8568        75  SAPC      C315           -7.0716820708      -37.7093008114        1.7577632128  MEMB      75              0.0000000000
      8569        75  SAPC      H15X           -6.5055008455      -36.7682058016        1.9253904049  MEMB      75              0.0000000000
      8570        75  SAPC      H15Y           -8.0856372241      -37.5066914190        1.3513579491  MEMB      75              0.0000000000
      8571        75  SAPC      C316           -6.2806325753      -38.4869199123        0.7327509678  MEMB      75              0.0000000000
      8572        75  SAPC      H16X           -6.8262819725      -39.4437424805        0.5875687617  MEMB      75              0.0000000000
      8573        75  SAPC      H16Y           -5.2270657818      -38.5131883787        1.0843588114  MEMB      75              0.0000000000
      8574        75  SAPC      C317           -6.1672532996      -37.7511749179       -0.6479715345  MEMB      75              0.0000000000
      8575        75  SAPC      H17X           -5.4640932436      -36.9312794155       -0.3878612243  MEMB      75              0.0000000000
      8576        75  SAPC      H17Y           -7.1382074048      -37.3779760466       -1.0382188485  MEMB      75              0.0000000000
      8577        75  SAPC      C318           -5.5446628292      -38.6883952069       -1.7607786270  MEMB      75              0.0000000000
      8578        75  SAPC      H18X           -6.1762866082      -39.5986379254       -1.8434259124  MEMB      75              0.0000000000
      8579        75  SAPC      H18Y           -4.4599121233      -38.8337654241       -1.5697177941  MEMB      75              0.0000000000
      8580        75  SAPC      H18Z           -5.6358123548      -38.1092115318       -2.7044734463  MEMB      75              0.0000000000
      8581        76  SAPS      N              37.7259116413        5.3437914129       20.9196947991  MEMB      76              0.0000000000
      8582        76  SAPS      HN1            38.0702994428        6.2530756180       20.5506430943  MEMB      76              0.0000000000
      8583        76  SAPS      HN2            36.9590418321        5.4931936030       21.6061273206  MEMB      76              0.0000000000
      8584        76  SAPS      HN3            38.5678968728        4.9251613796       21.3640030465  MEMB      76              0.0000000000
      8585        76  SAPS      C12            37.4121233543        4.4066782656       19.7308840365  MEMB      76              0.0000000000
      8586        76  SAPS      H12A           36.6030712059        4.8606478840       19.1779407717  MEMB      76              0.0000000000
      8587        76  SAPS      C13            38.5775853494        4.3508806333       18.7579628118  MEMB      76              0.0000000000
      8588        76  SAPS      O13A           39.6760259887        4.8476051810       19.0548141118  MEMB      76              0.0000000000
      8589        76  SAPS      O13B           38.4403047944        3.6277411939       17.7824418797  MEMB      76              0.0000000000
      8590        76  SAPS      C11            36.9120390520        3.0238051527       20.1801147272  MEMB      76              0.0000000000
      8591        76  SAPS      H11A           37.7254249765        2.5348540147       20.7577400545  MEMB      76              0.0000000000
      8592        76  SAPS      H11B           36.7055320498        2.3053948929       19.3581885933  MEMB      76              0.0000000000
      8593        76  SAPS      P              34.3974971827        3.4338104464       20.7674823862  MEMB      76              0.0000000000
      8594        76  SAPS      O13            33.4511620707        2.4731564827       21.4576226311  MEMB      76              0.0000000000
      8595        76  SAPS      O14            34.2241359789        4.8723817045       20.8993600428  MEMB      76              0.0000000000
      8596        76  SAPS      O12            35.8903772984        3.1451734968       21.2049070350  MEMB      76              0.0000000000
      8597        76  SAPS      O11            34.3975654843        3.0758917496       19.2447154882  MEMB      76              0.0000000000
      8598        76  SAPS      C1             33.3290668996        2.4075231852       18.6487804679  MEMB      76              0.0000000000
      8599        76  SAPS      HA             33.5857188510        1.3276714226       18.6000861353  MEMB      76              0.0000000000
      8600        76  SAPS      HB             32.3487479399        2.5078116869       19.1618477082  MEMB      76              0.0000000000
      8601        76  SAPS      C2             33.1672219657        2.9979824981       17.2091715326  MEMB      76              0.0000000000
      8602        76  SAPS      HS             32.3429093944        2.4293270927       16.7280677079  MEMB      76              0.0000000000
      8603        76  SAPS      O21            34.3900298106        2.9832458369       16.4468877490  MEMB      76              0.0000000000
      8604        76  SAPS      C21            34.6388784536        1.9741374017       15.6649678613  MEMB      76              0.0000000000
      8605        76  SAPS      O22            33.8963944709        1.0856702158       15.3302176956  MEMB      76              0.0000000000
      8606        76  SAPS      C22            36.0787131215        2.0868485681       15.1144325483  MEMB      76              0.0000000000
      8607        76  SAPS      H2R            36.2863402963        3.1735405273       15.0128819101  MEMB      76              0.0000000000
      8608        76  SAPS      H2S            36.7495276976        1.6090969659       15.8601416418  MEMB      76              0.0000000000
      8609        76  SAPS      C3             32.6881836169        4.4644974040       17.4497260411  MEMB      76              0.0000000000
      8610        76  SAPS      HX             33.6126330428        4.9221454817       17.8623667050  MEMB      76              0.0000000000
      8611        76  SAPS      HY             31.8540116245        4.5997169234       18.1709709493  MEMB      76              0.0000000000
      8612        76  SAPS      O31            32.2681069879        4.9928212139       16.1658822867  MEMB      76              0.0000000000
      8613        76  SAPS      C31            32.6924402790        6.1996142227       15.8401208111  MEMB      76              0.0000000000
      8614        76  SAPS      O32            33.0970526413        6.9857344107       16.6758744320  MEMB      76              0.0000000000
      8615        76  SAPS      C32            32.5884454157        6.4142863356       14.2922017805  MEMB      76              0.0000000000
      8616        76  SAPS      H2X            31.5270620416        6.6030078939       14.0235562475  MEMB      76              0.0000000000
      8617        76  SAPS      H2Y            32.9515591056        5.5012603218       13.7736912794  MEMB      76              0.0000000000
      8618        76  SAPS      C23            36.1852256244        1.3482472296       13.6709427702  MEMB      76              0.0000000000
      8619        76  SAPS      H3R            35.6325157617        1.9112893242       12.8887556294  MEMB      76              0.0000000000
      8620        76  SAPS      H3S            35.7778488313        0.3217078755       13.7916986847  MEMB      76              0.0000000000
      8621        76  SAPS      C24            37.6349924095        1.2326815360       13.1775283395  MEMB      76              0.0000000000
      8622        76  SAPS      H4R            37.6187693755        0.6960943524       12.2048345209  MEMB      76              0.0000000000
      8623        76  SAPS      H4S            38.2903371329        0.5783341630       13.7912657994  MEMB      76              0.0000000000
      8624        76  SAPS      C25            38.2973143657        2.5802646561       13.1155661003  MEMB      76              0.0000000000
      8625        76  SAPS      H5R            37.9528447639        3.2527812356       13.9149797550  MEMB      76              0.0000000000
      8626        76  SAPS      C26            39.1539990514        3.0393169330       12.2250733155  MEMB      76              0.0000000000
      8627        76  SAPS      H6R            39.4354120447        4.0803763488       12.4418727642  MEMB      76              0.0000000000
      8628        76  SAPS      C27            39.7165487728        2.3497803379       11.0046627934  MEMB      76              0.0000000000
      8629        76  SAPS      H7R            38.8581520959        1.8437725110       10.5133054278  MEMB      76              0.0000000000
      8630        76  SAPS      H7S            40.4053813148        1.5209430139       11.2745883806  MEMB      76              0.0000000000
      8631        76  SAPS      C28            40.4968166158        3.2644175281       10.1084465856  MEMB      76              0.0000000000
      8632        76  SAPS      H8R            40.4539462651        4.3131590910       10.4375408222  MEMB      76              0.0000000000
      8633        76  SAPS      C29            41.2042739577        3.0787811961        9.0063934531  MEMB      76              0.0000000000
      8634        76  SAPS      H9R            41.7590661908        3.9114814007        8.5494297776  MEMB      76              0.0000000000
      8635        76  SAPS      C210           41.3960716911        1.7340038338        8.3656543863  MEMB      76              0.0000000000
      8636        76  SAPS      H10R           41.1269580299        0.8740154738        9.0155152337  MEMB      76              0.0000000000
      8637        76  SAPS      H10S           42.4714814575        1.4965758880        8.2192204642  MEMB      76              0.0000000000
      8638        76  SAPS      C211           40.7256659239        1.6309188845        6.9962578633  MEMB      76              0.0000000000
      8639        76  SAPS      H11R           41.2660238075        2.1973222392        6.2234707903  MEMB      76              0.0000000000
      8640        76  SAPS      C212           39.6211359576        0.8837284855        6.7341929087  MEMB      76              0.0000000000
      8641        76  SAPS      H12R           39.2032569813        0.9832113425        5.7215334031  MEMB      76              0.0000000000
      8642        76  SAPS      C213           38.7787678904        0.0563820696        7.6347100239  MEMB      76              0.0000000000
      8643        76  SAPS      H13R           39.3284270484       -0.2448884738        8.5520058924  MEMB      76              0.0000000000
      8644        76  SAPS      H13S           38.4115904367       -0.8881788550        7.1794013401  MEMB      76              0.0000000000
      8645        76  SAPS      C214           37.5419866450        0.9421526227        7.7967776290  MEMB      76              0.0000000000
      8646        76  SAPS      H14R           37.7508214013        1.7580749502        8.5043493822  MEMB      76              0.0000000000
      8647        76  SAPS      C215           36.4186519818        0.9872307016        7.0479985547  MEMB      76              0.0000000000
      8648        76  SAPS      H15R           35.5898136313        1.6324791920        7.3746199085  MEMB      76              0.0000000000
      8649        76  SAPS      C216           36.0197423438        0.2311801978        5.8102132157  MEMB      76              0.0000000000
      8650        76  SAPS      H16R           34.9763157418       -0.1033033877        5.9937955468  MEMB      76              0.0000000000
      8651        76  SAPS      H16S           36.5596547211       -0.7289343997        5.6653162430  MEMB      76              0.0000000000
      8652        76  SAPS      C217           36.2157518928        0.9452428351        4.5036770398  MEMB      76              0.0000000000
      8653        76  SAPS      H17R           37.2208910759        1.4185247209        4.5081604162  MEMB      76              0.0000000000
      8654        76  SAPS      H17S           35.3928070404        1.6913075580        4.5253601036  MEMB      76              0.0000000000
      8655        76  SAPS      C218           36.0357501991        0.1454837786        3.1620555245  MEMB      76              0.0000000000
      8656        76  SAPS      H18R           35.0949689838       -0.4298664729        3.2970479919  MEMB      76              0.0000000000
      8657        76  SAPS      H18S           36.9241979351       -0.5189079446        3.1023474286  MEMB      76              0.0000000000
      8658        76  SAPS      C219           36.0154200139        1.0771966521        1.9840472157  MEMB      76              0.0000000000
      8659        76  SAPS      H19R           36.9148816973        1.7125155048        2.1312192974  MEMB      76              0.0000000000
      8660        76  SAPS      H19S           35.1693833799        1.7611819661        2.2092279037  MEMB      76              0.0000000000
      8661        76  SAPS      C220           35.9911908770        0.3963190591        0.6164104744  MEMB      76              0.0000000000
      8662        76  SAPS      H20R           36.8832139099       -0.2633886461        0.5580891267  MEMB      76              0.0000000000
      8663        76  SAPS      H20S           36.0454546879        1.1772849478       -0.1719213580  MEMB      76              0.0000000000
      8664        76  SAPS      H20T           35.0068305478       -0.1160335170        0.5630172226  MEMB      76              0.0000000000
      8665        76  SAPS      C33            33.4678372836        7.5384198176       13.7783852914  MEMB      76              0.0000000000
      8666        76  SAPS      H3X            33.4620933502        8.3214942163       14.5664733847  MEMB      76              0.0000000000
      8667        76  SAPS      H3Y            32.8792269878        8.0273541780       12.9729026556  MEMB      76              0.0000000000
      8668        76  SAPS      C34            34.9440232070        7.2042217216       13.4534030671  MEMB      76              0.0000000000
      8669        76  SAPS      H4X            35.4989908954        7.1306670665       14.4130498535  MEMB      76              0.0000000000
      8670        76  SAPS      H4Y            35.3172181719        8.0984675931       12.9099228879  MEMB      76              0.0000000000
      8671        76  SAPS      C35            35.3016917928        5.9545211619       12.5683701268  MEMB      76              0.0000000000
      8672        76  SAPS      H5X            34.9158169168        5.0659675905       13.1123317092  MEMB      76              0.0000000000
      8673        76  SAPS      H5Y            36.4099224672        5.8834702763       12.5352386958  MEMB      76              0.0000000000
      8674        76  SAPS      C36            34.5948266138        5.9361989409       11.2234603026  MEMB      76              0.0000000000
      8675        76  SAPS      H6X            35.3372792269        6.4544378705       10.5796331676  MEMB      76              0.0000000000
      8676        76  SAPS      H6Y            33.6461690896        6.4323078681       10.9263980776  MEMB      76              0.0000000000
      8677        76  SAPS      C37            34.4373330516        4.4166258056       10.6829113776  MEMB      76              0.0000000000
      8678        76  SAPS      H7X            33.8608354430        4.3644388867        9.7346241203  MEMB      76              0.0000000000
      8679        76  SAPS      H7Y            33.8048304794        3.8195151975       11.3740847644  MEMB      76              0.0000000000
      8680        76  SAPS      C38            35.7451987640        3.6847180547       10.4073040377  MEMB      76              0.0000000000
      8681        76  SAPS      H8X            35.5323637541        2.7616076517        9.8268815510  MEMB      76              0.0000000000
      8682        76  SAPS      H8Y            36.1761612569        3.3817906066       11.3854794322  MEMB      76              0.0000000000
      8683        76  SAPS      C39            36.8176157177        4.4170703893        9.6070063046  MEMB      76              0.0000000000
      8684        76  SAPS      H9X            37.7438517728        3.8056081018        9.6572216486  MEMB      76              0.0000000000
      8685        76  SAPS      H9Y            37.1651462009        5.3097037869       10.1698106688  MEMB      76              0.0000000000
      8686        76  SAPS      C310           36.3133371288        4.7481583397        8.1945115388  MEMB      76              0.0000000000
      8687        76  SAPS      H10X           35.7148090430        5.6697757521        8.3579322018  MEMB      76              0.0000000000
      8688        76  SAPS      H10Y           35.7246086613        3.8568741772        7.8890080510  MEMB      76              0.0000000000
      8689        76  SAPS      C311           37.4678169993        5.1260346198        7.2695675382  MEMB      76              0.0000000000
      8690        76  SAPS      H11X           37.8844892801        4.2104675787        6.7979297148  MEMB      76              0.0000000000
      8691        76  SAPS      H11Y           38.2664046211        5.7047814058        7.7810660500  MEMB      76              0.0000000000
      8692        76  SAPS      C312           36.9734977650        5.9706899075        6.0564152494  MEMB      76              0.0000000000
      8693        76  SAPS      H12X           37.6877149620        6.7889652691        5.8226633223  MEMB      76              0.0000000000
      8694        76  SAPS      H12Y           35.9889915902        6.4103019812        6.3243889160  MEMB      76              0.0000000000
      8695        76  SAPS      C313           36.8823003779        5.2192014009        4.7082401213  MEMB      76              0.0000000000
      8696        76  SAPS      H13X           36.1958118217        4.3463577504        4.6736220070  MEMB      76              0.0000000000
      8697        76  SAPS      H13Y           37.8788621788        4.8036241113        4.4465518173  MEMB      76              0.0000000000
      8698        76  SAPS      C314           36.4257488609        6.0883895675        3.5308817025  MEMB      76              0.0000000000
      8699        76  SAPS      H14X           37.2405589376        6.8061238608        3.2958000661  MEMB      76              0.0000000000
      8700        76  SAPS      H14Y           35.4470725878        6.5841451278        3.7062087357  MEMB      76              0.0000000000
      8701        76  SAPS      C315           36.1748183994        5.2424398194        2.3272875095  MEMB      76              0.0000000000
      8702        76  SAPS      H15X           35.6028936890        5.8727713589        1.6132105529  MEMB      76              0.0000000000
      8703        76  SAPS      H15Y           35.4914273329        4.3754934575        2.4525951286  MEMB      76              0.0000000000
      8704        76  SAPS      C316           37.3129602203        4.4924700041        1.6933953738  MEMB      76              0.0000000000
      8705        76  SAPS      H16X           37.0163191826        3.9362570859        0.7785439602  MEMB      76              0.0000000000
      8706        76  SAPS      H16Y           37.9036106112        3.8448804235        2.3760959791  MEMB      76              0.0000000000
      8707        76  SAPS      C317           38.3413442526        5.4228905756        0.9317174892  MEMB      76              0.0000000000
      8708        76  SAPS      H17X           38.7593665831        6.1125456199        1.6958862545  MEMB      76              0.0000000000
      8709        76  SAPS      H17Y           37.7447225281        5.9519754447        0.1581325561  MEMB      76              0.0000000000
      8710        76  SAPS      C318           39.4298629248        4.5616713943        0.2527166594  MEMB      76              0.0000000000
      8711        76  SAPS      H18X           39.0175002572        4.0038413186       -0.6150987613  MEMB      76              0.0000000000
      8712        76  SAPS      H18Y           39.9470846132        3.9006196098        0.9805995962  MEMB      76              0.0000000000
      8713        76  SAPS      H18Z           40.2002814323        5.1899276466       -0.2433379046  MEMB      76              0.0000000000
      8714        77  OSM       N             -36.1581213408      -10.4124088842       22.6102282170  MEMB      77              0.0000000000
      8715        77  OSM       C15           -34.9729663566      -11.0861499514       23.3016462883  MEMB      77              0.0000000000
      8716        77  OSM       H15A          -35.2651685783      -12.0473631288       23.6979884385  MEMB      77              0.0000000000
      8717        77  OSM       H15B          -34.5977063736      -10.3910471489       24.0381326332  MEMB      77              0.0000000000
      8718        77  OSM       H15C          -34.1809631794      -11.2502693495       22.5859678360  MEMB      77              0.0000000000
      8719        77  OSM       C14           -37.1474461811      -10.1253351605       23.7396593785  MEMB      77              0.0000000000
      8720        77  OSM       H14A          -37.9554051471       -9.5946294331       23.2580435010  MEMB      77              0.0000000000
      8721        77  OSM       H14B          -36.6733181835       -9.5557463182       24.5252619306  MEMB      77              0.0000000000
      8722        77  OSM       H14C          -37.5506000151      -11.0698805605       24.0738765002  MEMB      77              0.0000000000
      8723        77  OSM       C13           -35.8226755443       -9.1717009268       21.7805533475  MEMB      77              0.0000000000
      8724        77  OSM       H13A          -36.7314609988       -8.7347733436       21.3937678114  MEMB      77              0.0000000000
      8725        77  OSM       H13B          -35.2179936563       -9.5260537558       20.9588514823  MEMB      77              0.0000000000
      8726        77  OSM       H13C          -35.2527105024       -8.4213882024       22.3083512471  MEMB      77              0.0000000000
      8727        77  OSM       C12           -36.8700626252      -11.4244095482       21.7394799417  MEMB      77              0.0000000000
      8728        77  OSM       H12A          -37.8939578883      -11.1669338059       21.5120050732  MEMB      77              0.0000000000
      8729        77  OSM       H12B          -36.9611674017      -12.3253720584       22.3280089480  MEMB      77              0.0000000000
      8730        77  OSM       C11           -36.1064464073      -11.8460352904       20.4868660709  MEMB      77              0.0000000000
      8731        77  OSM       H11A          -36.2968044668      -11.0541071716       19.7312638766  MEMB      77              0.0000000000
      8732        77  OSM       H11B          -36.5117755120      -12.8145347999       20.1234955611  MEMB      77              0.0000000000
      8733        77  OSM       P             -33.8483032914      -12.0997902994       19.4451662763  MEMB      77              0.0000000000
      8734        77  OSM       O13           -32.4294542949      -12.2260964422       19.9616433536  MEMB      77              0.0000000000
      8735        77  OSM       O14           -34.4032975263      -13.2024192458       18.5740546202  MEMB      77              0.0000000000
      8736        77  OSM       O11           -34.0703765497      -10.7376208035       18.6589335891  MEMB      77              0.0000000000
      8737        77  OSM       O12           -34.7286642702      -12.0811123926       20.7017689119  MEMB      77              0.0000000000
      8738        77  OSM       C1S           -33.0687689748      -10.3295418046       17.6479128306  MEMB      77              0.0000000000
      8739        77  OSM       H1S           -32.0249791270      -10.6056809046       17.9097734343  MEMB      77              0.0000000000
      8740        77  OSM       H1T           -33.0943165875       -9.2259338340       17.5225422200  MEMB      77              0.0000000000
      8741        77  OSM       NF            -32.4757004143      -10.3919020428       15.2627145941  MEMB      77              0.0000000000
      8742        77  OSM       HNF           -32.9345964119       -9.9954158229       14.4713729837  MEMB      77              0.0000000000
      8743        77  OSM       C2S           -33.3730027661      -11.0100242991       16.2300013081  MEMB      77              0.0000000000
      8744        77  OSM       H2S           -33.0622473539      -12.0739896478       16.3056971675  MEMB      77              0.0000000000
      8745        77  OSM       C3S           -34.7238449959      -10.7927350713       15.7605620902  MEMB      77              0.0000000000
      8746        77  OSM       H3S           -34.9731367063       -9.7530124753       16.0624750982  MEMB      77              0.0000000000
      8747        77  OSM       O3            -35.7105319329      -11.5793392130       16.4945100126  MEMB      77              0.0000000000
      8748        77  OSM       HO3           -35.2266838335      -12.2099748056       17.0328312058  MEMB      77              0.0000000000
      8749        77  OSM       C4S           -34.8587783327      -11.2009207746       14.2707239168  MEMB      77              0.0000000000
      8750        77  OSM       H4S           -34.7819560556      -10.4019787500       13.5185336693  MEMB      77              0.0000000000
      8751        77  OSM       C5S           -35.0379128990      -12.4568086713       13.8125171581  MEMB      77              0.0000000000
      8752        77  OSM       H5S           -35.1479675662      -13.3312281553       14.4707566501  MEMB      77              0.0000000000
      8753        77  OSM       C6S           -35.2092297658      -12.7930126253       12.3533677546  MEMB      77              0.0000000000
      8754        77  OSM       H6S           -34.9393404883      -11.9060452237       11.7411832975  MEMB      77              0.0000000000
      8755        77  OSM       H6T           -36.2897384095      -12.8869713636       12.1125479722  MEMB      77              0.0000000000
      8756        77  OSM       C7S           -34.4397780880      -14.0302654746       11.8588475179  MEMB      77              0.0000000000
      8757        77  OSM       H7S           -34.8901344387      -14.9060069686       12.3732177169  MEMB      77              0.0000000000
      8758        77  OSM       H7T           -33.4511840815      -14.1641211233       12.3478108316  MEMB      77              0.0000000000
      8759        77  OSM       C8S           -34.3661051901      -14.0927297165       10.3189316368  MEMB      77              0.0000000000
      8760        77  OSM       H8S           -33.7079001420      -13.2723823485        9.9609967935  MEMB      77              0.0000000000
      8761        77  OSM       H8T           -35.3674292884      -13.9219146213        9.8689403493  MEMB      77              0.0000000000
      8762        77  OSM       C9S           -33.9776398452      -15.5211539018        9.7694131783  MEMB      77              0.0000000000
      8763        77  OSM       H9S           -34.5688485234      -16.2049113717       10.4153763028  MEMB      77              0.0000000000
      8764        77  OSM       H9T           -32.9172514905      -15.7953790910        9.9556874857  MEMB      77              0.0000000000
      8765        77  OSM       C10S          -34.3607161689      -15.6241551009        8.3085100637  MEMB      77              0.0000000000
      8766        77  OSM       H10S          -35.4493711275      -15.4553634705        8.1647700967  MEMB      77              0.0000000000
      8767        77  OSM       H10T          -34.2653542967      -16.7194539514        8.1486745147  MEMB      77              0.0000000000
      8768        77  OSM       C11S          -33.4201174864      -14.9881258432        7.2903792709  MEMB      77              0.0000000000
      8769        77  OSM       H11S          -32.4292106330      -15.4573392846        7.4699964091  MEMB      77              0.0000000000
      8770        77  OSM       H11T          -33.4774988142      -13.9014488929        7.5143468883  MEMB      77              0.0000000000
      8771        77  OSM       C12S          -33.7424993335      -15.2231904514        5.8567295981  MEMB      77              0.0000000000
      8772        77  OSM       H12S          -33.6900552109      -16.2778779276        5.5114695336  MEMB      77              0.0000000000
      8773        77  OSM       H12T          -32.9640689325      -14.6493753044        5.3098270702  MEMB      77              0.0000000000
      8774        77  OSM       C13S          -35.0628924614      -14.5266400222        5.5473942726  MEMB      77              0.0000000000
      8775        77  OSM       H13S          -34.8644955570      -13.4427773282        5.6895257275  MEMB      77              0.0000000000
      8776        77  OSM       H13T          -35.7627826055      -14.6872902218        6.3951367814  MEMB      77              0.0000000000
      8777        77  OSM       C14S          -35.6125853951      -14.7950831077        4.1968356092  MEMB      77              0.0000000000
      8778        77  OSM       H14S          -36.6407876455      -14.3894904989        4.0845143011  MEMB      77              0.0000000000
      8779        77  OSM       H14T          -35.6873922432      -15.9017726135        4.1338841826  MEMB      77              0.0000000000
      8780        77  OSM       C15S          -34.7128030743      -14.2412974542        3.0974763148  MEMB      77              0.0000000000
      8781        77  OSM       H15S          -33.6139181943      -14.3016904161        3.2495479903  MEMB      77              0.0000000000
      8782        77  OSM       H15T          -34.9690772599      -13.1714234282        2.9425090442  MEMB      77              0.0000000000
      8783        77  OSM       C16S          -35.1137554214      -15.0237856673        1.8450260339  MEMB      77              0.0000000000
      8784        77  OSM       H16S          -36.1937665599      -15.2789009778        1.8980662908  MEMB      77              0.0000000000
      8785        77  OSM       H16T          -34.5807209045      -15.9958549220        1.7723904115  MEMB      77              0.0000000000
      8786        77  OSM       C17S          -34.9347023256      -14.2396911388        0.5093990588  MEMB      77              0.0000000000
      8787        77  OSM       H17S          -35.6136736575      -13.3652875314        0.4159267100  MEMB      77              0.0000000000
      8788        77  OSM       H17T          -35.3002978324      -14.8964383714       -0.3087347594  MEMB      77              0.0000000000
      8789        77  OSM       C18S          -33.5008399508      -13.8335053880        0.1978484361  MEMB      77              0.0000000000
      8790        77  OSM       H18S          -32.9155141875      -14.7774732616        0.2231288261  MEMB      77              0.0000000000
      8791        77  OSM       H18T          -33.1582283331      -13.3267622288        1.1252922148  MEMB      77              0.0000000000
      8792        77  OSM       H18U          -33.3388750565      -13.3086684477       -0.7678820169  MEMB      77              0.0000000000
      8793        77  OSM       C1F           -31.0862615117      -10.2606733285       15.2971584439  MEMB      77              0.0000000000
      8794        77  OSM       OF            -30.2940956991      -10.6608756218       16.1812333723  MEMB      77              0.0000000000
      8795        77  OSM       C2F           -30.4714872663       -9.5294210887       14.0561422110  MEMB      77              0.0000000000
      8796        77  OSM       H2F           -29.3835079327       -9.7532785218       14.0787186104  MEMB      77              0.0000000000
      8797        77  OSM       H2G           -30.6493587615       -8.4422727140       14.2003354088  MEMB      77              0.0000000000
      8798        77  OSM       C3F           -31.1071863629       -9.8803911897       12.6768993449  MEMB      77              0.0000000000
      8799        77  OSM       H3F           -32.1922965826       -9.6632773810       12.5783174289  MEMB      77              0.0000000000
      8800        77  OSM       H3G           -31.1861666942      -10.9675899491       12.4622316968  MEMB      77              0.0000000000
      8801        77  OSM       C4F           -30.4179810682       -9.1872635374       11.5737565991  MEMB      77              0.0000000000
      8802        77  OSM       H4F           -29.4100496061       -9.5411860869       11.2685781446  MEMB      77              0.0000000000
      8803        77  OSM       H4G           -30.2655072537       -8.0991914264       11.7385963119  MEMB      77              0.0000000000
      8804        77  OSM       C5F           -31.2470872376       -9.3618355644       10.2647123803  MEMB      77              0.0000000000
      8805        77  OSM       H5F           -32.3138021706       -9.3268078445       10.5732788046  MEMB      77              0.0000000000
      8806        77  OSM       H5G           -31.1045350272      -10.3643678387        9.8076248748  MEMB      77              0.0000000000
      8807        77  OSM       C6F           -30.9115744361       -8.3458672440        9.1385690714  MEMB      77              0.0000000000
      8808        77  OSM       H6F           -29.8042314665       -8.3908871743        9.0605573249  MEMB      77              0.0000000000
      8809        77  OSM       H6G           -31.2612044612       -7.3462362587        9.4744524368  MEMB      77              0.0000000000
      8810        77  OSM       C7F           -31.6109514144       -8.6151266487        7.8600302806  MEMB      77              0.0000000000
      8811        77  OSM       H7F           -31.7655590920       -7.6890844570        7.2660069575  MEMB      77              0.0000000000
      8812        77  OSM       H7G           -32.6663782077       -8.8915720724        8.0697274444  MEMB      77              0.0000000000
      8813        77  OSM       C8F           -30.8976061395       -9.7567411607        7.0301006123  MEMB      77              0.0000000000
      8814        77  OSM       H8F           -31.1494832676      -10.7733323414        7.4008034063  MEMB      77              0.0000000000
      8815        77  OSM       H8G           -29.8225148035       -9.5699635990        7.2389403435  MEMB      77              0.0000000000
      8816        77  OSM       C9F           -31.1509227790       -9.4349048990        5.5858372898  MEMB      77              0.0000000000
      8817        77  OSM       H9F           -30.2777839638       -9.2344455033        4.9475231561  MEMB      77              0.0000000000
      8818        77  OSM       C10F          -32.2555586346       -9.8347210381        4.8731283563  MEMB      77              0.0000000000
      8819        77  OSM       H10F          -32.4331248691       -9.5313932202        3.8307931803  MEMB      77              0.0000000000
      8820        77  OSM       C11F          -33.4223447388      -10.5960907922        5.3775323128  MEMB      77              0.0000000000
      8821        77  OSM       H11F          -33.3328636931      -10.6852926608        6.4813247819  MEMB      77              0.0000000000
      8822        77  OSM       H11G          -33.4874194122      -11.6140986155        4.9373665579  MEMB      77              0.0000000000
      8823        77  OSM       C12F          -34.7116327383       -9.7492387591        5.2618539836  MEMB      77              0.0000000000
      8824        77  OSM       H12F          -35.5765253637      -10.2993473968        5.6904120092  MEMB      77              0.0000000000
      8825        77  OSM       H12G          -34.8259660956       -9.7325124973        4.1568792699  MEMB      77              0.0000000000
      8826        77  OSM       C13F          -34.8753833555       -8.3702369599        5.8877204958  MEMB      77              0.0000000000
      8827        77  OSM       H13F          -34.0060812817       -7.7578774112        5.5657723455  MEMB      77              0.0000000000
      8828        77  OSM       H13G          -34.7360267686       -8.5182913669        6.9799565801  MEMB      77              0.0000000000
      8829        77  OSM       C14F          -36.2431938376       -7.7630985477        5.6148826829  MEMB      77              0.0000000000
      8830        77  OSM       H14F          -36.3310267096       -6.8173744270        6.1912613997  MEMB      77              0.0000000000
      8831        77  OSM       H14G          -37.1257788798       -8.3759014880        5.8974371204  MEMB      77              0.0000000000
      8832        77  OSM       C15F          -36.5365935306       -7.3533879252        4.1174471762  MEMB      77              0.0000000000
      8833        77  OSM       H15F          -37.6220959625       -7.1183542094        4.0897882119  MEMB      77              0.0000000000
      8834        77  OSM       H15G          -36.4190160112       -8.2806935837        3.5169470470  MEMB      77              0.0000000000
      8835        77  OSM       C16F          -35.5888517954       -6.2305152031        3.6277633011  MEMB      77              0.0000000000
      8836        77  OSM       H16F          -34.5644675121       -6.5777594260        3.3740315930  MEMB      77              0.0000000000
      8837        77  OSM       H16G          -35.4580561236       -5.4158593897        4.3717712160  MEMB      77              0.0000000000
      8838        77  OSM       C17F          -36.0361935331       -5.6566198468        2.2928170947  MEMB      77              0.0000000000
      8839        77  OSM       H17F          -37.1338120359       -5.4947849693        2.2348217285  MEMB      77              0.0000000000
      8840        77  OSM       H17G          -35.8422483914       -6.4233123379        1.5125030029  MEMB      77              0.0000000000
      8841        77  OSM       C18F          -35.2960930291       -4.3140893272        1.9502360780  MEMB      77              0.0000000000
      8842        77  OSM       H18F          -34.2018945073       -4.3595927260        2.1372663123  MEMB      77              0.0000000000
      8843        77  OSM       H18G          -35.7508616443       -3.5401049979        2.6048003149  MEMB      77              0.0000000000
      8844        77  OSM       H18H          -35.4511876267       -4.0113945621        0.8925774590  MEMB      77              0.0000000000
      8845        78  SAPE      N              16.4161687143      -33.3488191989       19.0908631149  MEMB      78              0.0000000000
      8846        78  SAPE      HN1            16.4877911043      -33.6280903250       18.0916245146  MEMB      78              0.0000000000
      8847        78  SAPE      HN2            15.8243091662      -32.4936736006       19.0961620199  MEMB      78              0.0000000000
      8848        78  SAPE      HN3            17.3875939866      -33.0429919234       19.3015826372  MEMB      78              0.0000000000
      8849        78  SAPE      C12            15.6405366921      -34.4278659204       19.7463705176  MEMB      78              0.0000000000
      8850        78  SAPE      H12A           16.4885190966      -34.9922399246       20.1899115523  MEMB      78              0.0000000000
      8851        78  SAPE      H12B           15.2554894938      -34.9745390701       18.8591230083  MEMB      78              0.0000000000
      8852        78  SAPE      C11            14.5660613858      -34.0311935686       20.7801982122  MEMB      78              0.0000000000
      8853        78  SAPE      H11A           14.9753024570      -33.2685207394       21.4767418139  MEMB      78              0.0000000000
      8854        78  SAPE      H11B           14.3028758520      -34.8142499184       21.5230825482  MEMB      78              0.0000000000
      8855        78  SAPE      P              12.0883978556      -34.2935338812       20.1392184865  MEMB      78              0.0000000000
      8856        78  SAPE      O13            12.3755086547      -35.7248694625       19.8947466169  MEMB      78              0.0000000000
      8857        78  SAPE      O14            11.4503223959      -33.9076056796       21.4064919891  MEMB      78              0.0000000000
      8858        78  SAPE      O12            13.4149101701      -33.4684354391       20.0330321189  MEMB      78              0.0000000000
      8859        78  SAPE      O11            11.2940742071      -33.7076258974       18.9090789362  MEMB      78              0.0000000000
      8860        78  SAPE      C1             11.3057343465      -34.3155195359       17.5786133563  MEMB      78              0.0000000000
      8861        78  SAPE      HA             11.5127447056      -35.4070548202       17.5829113237  MEMB      78              0.0000000000
      8862        78  SAPE      HB             10.3134007734      -34.1961552256       17.0934873003  MEMB      78              0.0000000000
      8863        78  SAPE      C2             12.5164367936      -33.6889003403       16.7247702966  MEMB      78              0.0000000000
      8864        78  SAPE      HS             13.4361309235      -33.8678983428       17.3217993025  MEMB      78              0.0000000000
      8865        78  SAPE      O21            12.4014652170      -32.2529040615       16.5062589694  MEMB      78              0.0000000000
      8866        78  SAPE      C21            11.2543280280      -31.7254147679       15.9850391853  MEMB      78              0.0000000000
      8867        78  SAPE      O22            10.1778454284      -32.2939112483       15.8282174477  MEMB      78              0.0000000000
      8868        78  SAPE      C22            11.5447180824      -30.2137190989       15.7091491055  MEMB      78              0.0000000000
      8869        78  SAPE      H2R            11.3461592687      -29.5822722490       16.6014328857  MEMB      78              0.0000000000
      8870        78  SAPE      H2S            12.6244897288      -30.0879104034       15.4798320474  MEMB      78              0.0000000000
      8871        78  SAPE      C3             12.6703803870      -34.3840866217       15.3155947816  MEMB      78              0.0000000000
      8872        78  SAPE      HX             12.8284207073      -35.4638601654       15.5240010362  MEMB      78              0.0000000000
      8873        78  SAPE      HY             13.6377651487      -33.9942587646       14.9328129572  MEMB      78              0.0000000000
      8874        78  SAPE      O31            11.5529943878      -34.1994886283       14.4485026997  MEMB      78              0.0000000000
      8875        78  SAPE      C31            11.6400362642      -34.7187583069       13.1895992706  MEMB      78              0.0000000000
      8876        78  SAPE      O32            12.6401384408      -35.2139444672       12.7021278683  MEMB      78              0.0000000000
      8877        78  SAPE      C32            10.2499124362      -34.6592137386       12.5085847896  MEMB      78              0.0000000000
      8878        78  SAPE      H2X             9.6630726877      -33.7652386230       12.8098300977  MEMB      78              0.0000000000
      8879        78  SAPE      H2Y             9.6406601052      -35.5348759914       12.8189850864  MEMB      78              0.0000000000
      8880        78  SAPE      C23            10.7910032376      -29.5340345031       14.5520281794  MEMB      78              0.0000000000
      8881        78  SAPE      H3R            10.7405925240      -28.4457740595       14.7699013812  MEMB      78              0.0000000000
      8882        78  SAPE      H3S             9.7338622754      -29.8748196450       14.5267480127  MEMB      78              0.0000000000
      8883        78  SAPE      C24            11.2563420364      -29.8502466819       13.0365360654  MEMB      78              0.0000000000
      8884        78  SAPE      H4R            10.4199806299      -29.4698513302       12.4119401456  MEMB      78              0.0000000000
      8885        78  SAPE      H4S            11.2171604965      -30.9478166445       12.8688285987  MEMB      78              0.0000000000
      8886        78  SAPE      C25            12.5605906894      -29.2578993950       12.5229172904  MEMB      78              0.0000000000
      8887        78  SAPE      H5R            12.5182884317      -28.1755961002       12.3310043973  MEMB      78              0.0000000000
      8888        78  SAPE      C26            13.6824770975      -29.9905756399       12.1898836838  MEMB      78              0.0000000000
      8889        78  SAPE      H6R            14.5759336400      -29.4039904011       11.9297827099  MEMB      78              0.0000000000
      8890        78  SAPE      C27            13.7472028691      -31.4410075467       12.3075345459  MEMB      78              0.0000000000
      8891        78  SAPE      H7R            12.8851817590      -31.8701286102       11.7533722559  MEMB      78              0.0000000000
      8892        78  SAPE      H7S            13.6022497786      -31.6462926323       13.3897395928  MEMB      78              0.0000000000
      8893        78  SAPE      C28            15.0066256577      -32.0417155490       11.7914530924  MEMB      78              0.0000000000
      8894        78  SAPE      H8R            15.6920804392      -32.4916121453       12.5247637460  MEMB      78              0.0000000000
      8895        78  SAPE      C29            15.3829781743      -31.9992783337       10.5195620529  MEMB      78              0.0000000000
      8896        78  SAPE      H9R            16.2949395588      -32.5981813390       10.3794143547  MEMB      78              0.0000000000
      8897        78  SAPE      C210           14.7034187226      -31.4154492156        9.2742076182  MEMB      78              0.0000000000
      8898        78  SAPE      H10R           14.9510214454      -30.3324297608        9.2651175105  MEMB      78              0.0000000000
      8899        78  SAPE      H10S           13.5942467238      -31.4024116460        9.3365641760  MEMB      78              0.0000000000
      8900        78  SAPE      C211           15.2307065243      -31.9215078398        7.9560080330  MEMB      78              0.0000000000
      8901        78  SAPE      H11R           16.2253134061      -31.5339731062        7.6903510199  MEMB      78              0.0000000000
      8902        78  SAPE      C212           14.6564514353      -32.8265047247        7.1518992918  MEMB      78              0.0000000000
      8903        78  SAPE      H12R           15.1286162365      -33.1125542887        6.2004601490  MEMB      78              0.0000000000
      8904        78  SAPE      C213           13.3307701975      -33.4720259593        7.3174104770  MEMB      78              0.0000000000
      8905        78  SAPE      H13R           12.5988818834      -33.0409007565        6.6013155437  MEMB      78              0.0000000000
      8906        78  SAPE      H13S           12.9124022179      -33.3360828075        8.3376112887  MEMB      78              0.0000000000
      8907        78  SAPE      C214           13.4297064168      -34.9694876300        7.2447620244  MEMB      78              0.0000000000
      8908        78  SAPE      H14R           13.4620145156      -35.5030435980        8.2061534199  MEMB      78              0.0000000000
      8909        78  SAPE      C215           13.2353548847      -35.7295407113        6.1511696170  MEMB      78              0.0000000000
      8910        78  SAPE      H15R           13.4811941283      -36.8014068884        6.1253655710  MEMB      78              0.0000000000
      8911        78  SAPE      C216           12.9016530526      -35.1941765880        4.7887048750  MEMB      78              0.0000000000
      8912        78  SAPE      H16R           13.4086152513      -35.6892910565        3.9330348640  MEMB      78              0.0000000000
      8913        78  SAPE      H16S           13.2206594162      -34.1504026511        4.5811196666  MEMB      78              0.0000000000
      8914        78  SAPE      C217           11.3721683713      -35.3314262714        4.4142547930  MEMB      78              0.0000000000
      8915        78  SAPE      H17R           10.8421097454      -34.6298778260        5.0933638372  MEMB      78              0.0000000000
      8916        78  SAPE      H17S           11.0422654921      -36.3797478466        4.5770644057  MEMB      78              0.0000000000
      8917        78  SAPE      C218           10.9834837155      -35.0248217029        2.9671700113  MEMB      78              0.0000000000
      8918        78  SAPE      H18R           11.3759189985      -35.7945973966        2.2687709279  MEMB      78              0.0000000000
      8919        78  SAPE      H18S           11.4997837203      -34.0908163383        2.6583184098  MEMB      78              0.0000000000
      8920        78  SAPE      C219            9.5061669190      -34.8497680538        2.6914068380  MEMB      78              0.0000000000
      8921        78  SAPE      H19R            9.5116750995      -34.2413583711        1.7618212116  MEMB      78              0.0000000000
      8922        78  SAPE      H19S            9.0020551459      -34.2045935724        3.4423668154  MEMB      78              0.0000000000
      8923        78  SAPE      C220            8.6715386262      -36.1509816351        2.5297268523  MEMB      78              0.0000000000
      8924        78  SAPE      H20R            9.3091138156      -36.7642773943        1.8576495893  MEMB      78              0.0000000000
      8925        78  SAPE      H20S            7.7190847471      -35.8426266095        2.0479892537  MEMB      78              0.0000000000
      8926        78  SAPE      H20T            8.4948190787      -36.7204168682        3.4671880943  MEMB      78              0.0000000000
      8927        78  SAPE      C33            10.5031489099      -34.6474986785       10.9800766250  MEMB      78              0.0000000000
      8928        78  SAPE      H3X            10.2768218451      -35.6643120870       10.5938286173  MEMB      78              0.0000000000
      8929        78  SAPE      H3Y            11.5285635265      -34.2566064334       10.8067302118  MEMB      78              0.0000000000
      8930        78  SAPE      C34             9.3982398330      -33.7707998941       10.3098951951  MEMB      78              0.0000000000
      8931        78  SAPE      H4X             9.2811355508      -32.8137075981       10.8617845899  MEMB      78              0.0000000000
      8932        78  SAPE      H4Y             8.4457791110      -34.3223410420       10.1584282341  MEMB      78              0.0000000000
      8933        78  SAPE      C35             9.8631367337      -33.3556762182        8.8162459096  MEMB      78              0.0000000000
      8934        78  SAPE      H5X            10.1498886115      -34.3521516743        8.4173338203  MEMB      78              0.0000000000
      8935        78  SAPE      H5Y            10.7862406783      -32.7534390846        8.9559257803  MEMB      78              0.0000000000
      8936        78  SAPE      C36             8.7427512151      -32.6954794238        8.1110657564  MEMB      78              0.0000000000
      8937        78  SAPE      H6X             8.6117492974      -31.7214527143        8.6291691594  MEMB      78              0.0000000000
      8938        78  SAPE      H6Y             7.8627048306      -33.3193448455        8.3768314235  MEMB      78              0.0000000000
      8939        78  SAPE      C37             9.0927605080      -32.3205955658        6.6472486999  MEMB      78              0.0000000000
      8940        78  SAPE      H7X             8.1894963878      -32.0217644564        6.0735464047  MEMB      78              0.0000000000
      8941        78  SAPE      H7Y             9.4643710720      -33.2538478786        6.1726255401  MEMB      78              0.0000000000
      8942        78  SAPE      C38            10.1206540090      -31.2061823691        6.4596820639  MEMB      78              0.0000000000
      8943        78  SAPE      H8X            11.0466861323      -31.6543252668        6.8791506853  MEMB      78              0.0000000000
      8944        78  SAPE      H8Y             9.7714996808      -30.3707867152        7.1035192652  MEMB      78              0.0000000000
      8945        78  SAPE      C39            10.2697528774      -30.7908570069        5.0606506834  MEMB      78              0.0000000000
      8946        78  SAPE      H9X             9.2414581304      -30.5084039677        4.7489600266  MEMB      78              0.0000000000
      8947        78  SAPE      H9Y            10.5466879403      -31.6951985757        4.4777325322  MEMB      78              0.0000000000
      8948        78  SAPE      C310           11.3832202912      -29.8200754713        4.7472488221  MEMB      78              0.0000000000
      8949        78  SAPE      H10X           12.2909837299      -30.3537988775        5.1014040042  MEMB      78              0.0000000000
      8950        78  SAPE      H10Y           11.2166651882      -28.8591186300        5.2793595345  MEMB      78              0.0000000000
      8951        78  SAPE      C311           11.5868504381      -29.3269899043        3.2628503843  MEMB      78              0.0000000000
      8952        78  SAPE      H11X           12.2157609593      -28.4111451263        3.2582230748  MEMB      78              0.0000000000
      8953        78  SAPE      H11Y           10.5669306544      -29.0483210488        2.9216361377  MEMB      78              0.0000000000
      8954        78  SAPE      C312           12.0752864597      -30.3778781140        2.3453979804  MEMB      78              0.0000000000
      8955        78  SAPE      H12X           11.9331893450      -31.4140576330        2.7201805140  MEMB      78              0.0000000000
      8956        78  SAPE      H12Y           13.1696248709      -30.2573625438        2.1963327845  MEMB      78              0.0000000000
      8957        78  SAPE      C313           11.2027153904      -30.4448352511        0.9846068026  MEMB      78              0.0000000000
      8958        78  SAPE      H13X           10.1929251472      -30.5110354002        1.4431499699  MEMB      78              0.0000000000
      8959        78  SAPE      H13Y           11.3555277126      -31.4072410321        0.4509915934  MEMB      78              0.0000000000
      8960        78  SAPE      C314           11.4119027898      -29.2085495364        0.0770074604  MEMB      78              0.0000000000
      8961        78  SAPE      H14X           12.4244398754      -28.7581289981        0.1558172255  MEMB      78              0.0000000000
      8962        78  SAPE      H14Y           10.7200037265      -28.4187383045        0.4400428251  MEMB      78              0.0000000000
      8963        78  SAPE      C315           11.1504947991      -29.5576229070       -1.3543268546  MEMB      78              0.0000000000
      8964        78  SAPE      H15X           10.7156231833      -28.6878688742       -1.8916684977  MEMB      78              0.0000000000
      8965        78  SAPE      H15Y           10.3543862770      -30.3321303603       -1.3802228285  MEMB      78              0.0000000000
      8966        78  SAPE      C316           12.4612216705      -29.9654703800       -2.0892959639  MEMB      78              0.0000000000
      8967        78  SAPE      H16X           13.2683164514      -29.8143801427       -1.3409038016  MEMB      78              0.0000000000
      8968        78  SAPE      H16Y           12.7128168350      -29.3637308852       -2.9887018679  MEMB      78              0.0000000000
      8969        78  SAPE      C317           12.3225660161      -31.3998834191       -2.4340615755  MEMB      78              0.0000000000
      8970        78  SAPE      H17X           11.7127114639      -31.3808187003       -3.3625198817  MEMB      78              0.0000000000
      8971        78  SAPE      H17Y           11.7988221287      -31.9796677677       -1.6442117975  MEMB      78              0.0000000000
      8972        78  SAPE      C318           13.6153434538      -32.0506829473       -2.7115058616  MEMB      78              0.0000000000
      8973        78  SAPE      H18X           14.2562700983      -31.6280609620       -3.5145777249  MEMB      78              0.0000000000
      8974        78  SAPE      H18Y           13.5061404259      -33.1547668823       -2.6532462312  MEMB      78              0.0000000000
      8975        78  SAPE      H18Z           14.2126470740      -31.7495782414       -1.8244410155  MEMB      78              0.0000000000
      8976        79  CHL1      C3             -9.3689021438       36.3622663391       17.3274600000  MEMB      79              0.0000000000
      8977        79  CHL1      H3             -9.4362210337       37.4600486844       17.1704600000  MEMB      79              0.0000000000
      8978        79  CHL1      O3             -9.5654351562       35.9304580609       18.6725400000  MEMB      79              0.0000000000
      8979        79  CHL1      H3'           -10.4837043839       36.0505101737       18.9255000000  MEMB      79              0.0000000000
      8980        79  CHL1      C4            -10.5013912489       35.8696491331       16.4059900000  MEMB      79              0.0000000000
      8981        79  CHL1      H4A           -10.6410813876       34.7701732188       16.4832300000  MEMB      79              0.0000000000
      8982        79  CHL1      H4B           -11.3899237479       36.3537415847       16.8648000000  MEMB      79              0.0000000000
      8983        79  CHL1      C5            -10.2399648536       36.3639900975       15.0041400000  MEMB      79              0.0000000000
      8984        79  CHL1      C6            -11.1896766817       37.0687798337       14.3199400000  MEMB      79              0.0000000000
      8985        79  CHL1      H6            -12.1381302523       37.3474003164       14.8024600000  MEMB      79              0.0000000000
      8986        79  CHL1      C7            -10.9943772985       37.5141737168       12.8403200000  MEMB      79              0.0000000000
      8987        79  CHL1      H7A           -11.9761724162       37.5820280001       12.3247700000  MEMB      79              0.0000000000
      8988        79  CHL1      H7B           -10.6669352368       38.5754425751       12.8118100000  MEMB      79              0.0000000000
      8989        79  CHL1      C8             -9.9934024909       36.5543558804       12.0982800000  MEMB      79              0.0000000000
      8990        79  CHL1      H8            -10.4851102906       35.5632637141       11.9968600000  MEMB      79              0.0000000000
      8991        79  CHL1      C14            -9.6465906395       37.1582940765       10.7181500000  MEMB      79              0.0000000000
      8992        79  CHL1      H14            -9.2193236147       38.1505166515       10.9775100000  MEMB      79              0.0000000000
      8993        79  CHL1      C15           -10.7075142644       37.4646859668        9.7342200000  MEMB      79              0.0000000000
      8994        79  CHL1      H15A          -11.4143161365       36.6119112045        9.6474200000  MEMB      79              0.0000000000
      8995        79  CHL1      H15B          -11.2343276493       38.3630957773       10.1210900000  MEMB      79              0.0000000000
      8996        79  CHL1      C16            -9.9460918642       37.6665210602        8.3977700000  MEMB      79              0.0000000000
      8997        79  CHL1      H16A          -10.3309135602       37.0111528425        7.5873900000  MEMB      79              0.0000000000
      8998        79  CHL1      H16B          -10.0176903974       38.7532694917        8.1782700000  MEMB      79              0.0000000000
      8999        79  CHL1      C17            -8.4613235698       37.3389622738        8.6581900000  MEMB      79              0.0000000000
      9000        79  CHL1      H17            -7.9232739167       38.2528366532        8.9893300000  MEMB      79              0.0000000000
      9001        79  CHL1      C13            -8.4871541068       36.5010670440        9.9583600000  MEMB      79              0.0000000000
      9002        79  CHL1      C18            -8.9371765679       35.1057296775        9.7137000000  MEMB      79              0.0000000000
      9003        79  CHL1      H18A           -9.9481628133       35.0942015310        9.2531800000  MEMB      79              0.0000000000
      9004        79  CHL1      H18B           -8.2198529299       34.5866810398        9.0426100000  MEMB      79              0.0000000000
      9005        79  CHL1      H18C           -9.0410192412       34.4927470734       10.6344600000  MEMB      79              0.0000000000
      9006        79  CHL1      C12            -7.2810558615       36.6726225182       10.8765600000  MEMB      79              0.0000000000
      9007        79  CHL1      H12A           -6.4306723800       36.1124639916       10.4322900000  MEMB      79              0.0000000000
      9008        79  CHL1      H12B           -7.0262824700       37.7494285731       10.9760700000  MEMB      79              0.0000000000
      9009        79  CHL1      C11            -7.4868517078       36.0060380827       12.1696200000  MEMB      79              0.0000000000
      9010        79  CHL1      H11A           -7.4518848680       34.8957925654       12.1482300000  MEMB      79              0.0000000000
      9011        79  CHL1      H11B           -6.5755628932       36.3024303770       12.7317700000  MEMB      79              0.0000000000
      9012        79  CHL1      C9             -8.6797232679       36.5247745995       13.0073500000  MEMB      79              0.0000000000
      9013        79  CHL1      H9             -8.5831624970       37.6175961216       13.1826300000  MEMB      79              0.0000000000
      9014        79  CHL1      C10            -8.8905697973       35.9533265266       14.4449300000  MEMB      79              0.0000000000
      9015        79  CHL1      C19            -8.8259507629       34.4120656403       14.1588800000  MEMB      79              0.0000000000
      9016        79  CHL1      H19A           -9.0955734699       33.7760737130       15.0290200000  MEMB      79              0.0000000000
      9017        79  CHL1      H19B           -9.5042901829       34.0250726725       13.3686800000  MEMB      79              0.0000000000
      9018        79  CHL1      H19C           -7.7772682706       34.1550705998       13.8970900000  MEMB      79              0.0000000000
      9019        79  CHL1      C1             -7.7800799721       36.4719363294       15.4427600000  MEMB      79              0.0000000000
      9020        79  CHL1      H1A            -6.8529051035       35.9367540768       15.1456600000  MEMB      79              0.0000000000
      9021        79  CHL1      H1B            -7.6692552324       37.5768471069       15.4773400000  MEMB      79              0.0000000000
      9022        79  CHL1      C2             -7.9806400291       35.9580359845       16.9003100000  MEMB      79              0.0000000000
      9023        79  CHL1      H2A            -7.1350533953       36.3990431119       17.4702300000  MEMB      79              0.0000000000
      9024        79  CHL1      H2B            -7.7898769582       34.8636554997       16.8839000000  MEMB      79              0.0000000000
      9025        79  CHL1      C20            -7.7389666352       36.7449806766        7.4054100000  MEMB      79              0.0000000000
      9026        79  CHL1      H20            -8.4101246175       35.9053498148        7.1245700000  MEMB      79              0.0000000000
      9027        79  CHL1      C21            -6.3226025462       36.1143667034        7.7188500000  MEMB      79              0.0000000000
      9028        79  CHL1      H21A           -6.4182160858       35.1155436852        8.1958500000  MEMB      79              0.0000000000
      9029        79  CHL1      H21B           -5.6435208809       36.8461459215        8.2063600000  MEMB      79              0.0000000000
      9030        79  CHL1      H21C           -5.9141643354       35.8798727684        6.7126200000  MEMB      79              0.0000000000
      9031        79  CHL1      C22            -7.7178824541       37.7207843895        6.1523400000  MEMB      79              0.0000000000
      9032        79  CHL1      H22A           -8.6477806618       38.2972180266        5.9591200000  MEMB      79              0.0000000000
      9033        79  CHL1      H22B           -6.8371369423       38.3575767648        6.3828300000  MEMB      79              0.0000000000
      9034        79  CHL1      C23            -7.5755759788       36.9785186236        4.7583700000  MEMB      79              0.0000000000
      9035        79  CHL1      H23A           -6.6109634855       36.4272996425        4.7563300000  MEMB      79              0.0000000000
      9036        79  CHL1      H23B           -8.3876561316       36.2341295361        4.6143900000  MEMB      79              0.0000000000
      9037        79  CHL1      C24            -7.5304619446       37.9274560852        3.5357000000  MEMB      79              0.0000000000
      9038        79  CHL1      H24A           -8.5580305067       38.1000382230        3.1501500000  MEMB      79              0.0000000000
      9039        79  CHL1      H24B           -7.1149075567       38.9253166242        3.7924500000  MEMB      79              0.0000000000
      9040        79  CHL1      C25            -6.7276236968       37.4390096780        2.2807400000  MEMB      79              0.0000000000
      9041        79  CHL1      H25            -5.6509035458       37.2834141177        2.5060900000  MEMB      79              0.0000000000
      9042        79  CHL1      C26            -7.0492462479       36.0606889012        1.7391100000  MEMB      79              0.0000000000
      9043        79  CHL1      H26A           -6.8881818795       35.2735735741        2.5064700000  MEMB      79              0.0000000000
      9044        79  CHL1      H26B           -8.1257363609       36.0451600880        1.4647800000  MEMB      79              0.0000000000
      9045        79  CHL1      H26C           -6.4382466118       35.8220174686        0.8424200000  MEMB      79              0.0000000000
      9046        79  CHL1      C27            -6.7407972170       38.3784718292        1.1123800000  MEMB      79              0.0000000000
      9047        79  CHL1      H27A           -7.6819839045       38.3702966261        0.5221000000  MEMB      79              0.0000000000
      9048        79  CHL1      H27B           -6.5848463537       39.4736989156        1.2149300000  MEMB      79              0.0000000000
      9049        79  CHL1      H27C           -5.9793605085       37.9905339581        0.4024300000  MEMB      79              0.0000000000
      9050        80  SAPE      N             -19.9506656373      -31.3053951714       22.1445361957  MEMB      80              0.0000000000
      9051        80  SAPE      HN1           -19.0756645941      -30.9319514749       21.7244015306  MEMB      80              0.0000000000
      9052        80  SAPE      HN2           -20.6180952203      -30.5226780595       22.2978060188  MEMB      80              0.0000000000
      9053        80  SAPE      HN3           -19.7052191013      -31.6038079326       23.1100961187  MEMB      80              0.0000000000
      9054        80  SAPE      C12           -20.5194114251      -32.5167125259       21.4620223022  MEMB      80              0.0000000000
      9055        80  SAPE      H12A          -21.5787158214      -32.5879796791       21.7893085496  MEMB      80              0.0000000000
      9056        80  SAPE      H12B          -19.9882494820      -33.3643470056       21.9454512185  MEMB      80              0.0000000000
      9057        80  SAPE      C11           -20.4790030181      -32.4993458192       19.8785424191  MEMB      80              0.0000000000
      9058        80  SAPE      H11A          -21.0973682860      -33.2852606292       19.3945142590  MEMB      80              0.0000000000
      9059        80  SAPE      H11B          -19.4087399815      -32.5673470829       19.5883118678  MEMB      80              0.0000000000
      9060        80  SAPE      P             -22.5826946813      -30.9290059778       19.3376743879  MEMB      80              0.0000000000
      9061        80  SAPE      O13           -23.2630982015      -31.7965292592       18.3907559314  MEMB      80              0.0000000000
      9062        80  SAPE      O14           -23.1215568959      -30.8470095608       20.7382580459  MEMB      80              0.0000000000
      9063        80  SAPE      O12           -21.0142306058      -31.2803445184       19.3849549538  MEMB      80              0.0000000000
      9064        80  SAPE      O11           -22.6730651405      -29.4758227639       18.6632557373  MEMB      80              0.0000000000
      9065        80  SAPE      C1            -22.4384435233      -28.2580542635       19.3756756696  MEMB      80              0.0000000000
      9066        80  SAPE      HA            -23.4079356423      -27.9678920361       19.8341643872  MEMB      80              0.0000000000
      9067        80  SAPE      HB            -21.6806636708      -28.2701740183       20.1880449438  MEMB      80              0.0000000000
      9068        80  SAPE      C2            -21.9327500638      -27.1529541057       18.3572776840  MEMB      80              0.0000000000
      9069        80  SAPE      HS            -22.1154943068      -26.1227790076       18.7309951958  MEMB      80              0.0000000000
      9070        80  SAPE      O21           -22.5093068121      -27.2215340039       17.0492398752  MEMB      80              0.0000000000
      9071        80  SAPE      C21           -23.7800341914      -27.0215399812       17.0436460937  MEMB      80              0.0000000000
      9072        80  SAPE      O22           -24.4889123322      -26.6328565945       17.9143805363  MEMB      80              0.0000000000
      9073        80  SAPE      C22           -24.2961833998      -27.4252767886       15.6052443112  MEMB      80              0.0000000000
      9074        80  SAPE      H2R           -25.3680687535      -27.6963431299       15.7143577714  MEMB      80              0.0000000000
      9075        80  SAPE      H2S           -24.1230942370      -26.5273270449       14.9743347731  MEMB      80              0.0000000000
      9076        80  SAPE      C3            -20.4314609690      -27.3413588833       18.1901373244  MEMB      80              0.0000000000
      9077        80  SAPE      HX            -19.8827675779      -27.2392552343       19.1507784319  MEMB      80              0.0000000000
      9078        80  SAPE      HY            -19.9470674929      -26.5393573383       17.5930797394  MEMB      80              0.0000000000
      9079        80  SAPE      O31           -20.0980653485      -28.6630039670       17.7508842369  MEMB      80              0.0000000000
      9080        80  SAPE      C31           -19.7007184528      -28.8278249143       16.4081586868  MEMB      80              0.0000000000
      9081        80  SAPE      O32           -19.8666410450      -27.9938965047       15.5976526142  MEMB      80              0.0000000000
      9082        80  SAPE      C32           -18.9957408849      -30.1539762963       16.3096868093  MEMB      80              0.0000000000
      9083        80  SAPE      H2X           -18.6825978757      -30.5642678246       17.2935176975  MEMB      80              0.0000000000
      9084        80  SAPE      H2Y           -18.1750315838      -30.0555046183       15.5673524473  MEMB      80              0.0000000000
      9085        80  SAPE      C23           -23.5966909501      -28.6692379095       15.0269399103  MEMB      80              0.0000000000
      9086        80  SAPE      H3R           -23.4501502105      -29.4682422149       15.7848573678  MEMB      80              0.0000000000
      9087        80  SAPE      H3S           -22.6414211364      -28.3268349612       14.5746780444  MEMB      80              0.0000000000
      9088        80  SAPE      C24           -24.4339941399      -29.3255501028       13.9017237394  MEMB      80              0.0000000000
      9089        80  SAPE      H4R           -24.7029584612      -28.4675483860       13.2491808560  MEMB      80              0.0000000000
      9090        80  SAPE      H4S           -25.3865543965      -29.7367872147       14.2990073585  MEMB      80              0.0000000000
      9091        80  SAPE      C25           -23.7101543274      -30.5326254517       13.3117607605  MEMB      80              0.0000000000
      9092        80  SAPE      H5R           -23.8118207088      -31.4334983287       13.9347308764  MEMB      80              0.0000000000
      9093        80  SAPE      C26           -23.0899550805      -30.5052715895       12.0627887162  MEMB      80              0.0000000000
      9094        80  SAPE      H6R           -22.6035768576      -31.4151720404       11.6813209371  MEMB      80              0.0000000000
      9095        80  SAPE      C27           -23.0730837322      -29.3500505673       11.0877978889  MEMB      80              0.0000000000
      9096        80  SAPE      H7R           -22.2496285576      -28.6606694019       11.3723967773  MEMB      80              0.0000000000
      9097        80  SAPE      H7S           -23.9603008104      -28.6934248794       11.2143274470  MEMB      80              0.0000000000
      9098        80  SAPE      C28           -22.8830456295      -29.7500661411        9.6662396512  MEMB      80              0.0000000000
      9099        80  SAPE      H8R           -22.3258925304      -30.6973478775        9.6189347226  MEMB      80              0.0000000000
      9100        80  SAPE      C29           -23.3462949375      -29.1118659153        8.5333973812  MEMB      80              0.0000000000
      9101        80  SAPE      H9R           -23.1618160279      -29.6572836459        7.5961208552  MEMB      80              0.0000000000
      9102        80  SAPE      C210          -24.0537334004      -27.7808692527        8.6335774585  MEMB      80              0.0000000000
      9103        80  SAPE      H10R          -24.2465548422      -27.4847305523        9.6868781083  MEMB      80              0.0000000000
      9104        80  SAPE      H10S          -25.0129176570      -27.9071222958        8.0873663832  MEMB      80              0.0000000000
      9105        80  SAPE      C211          -23.2224739861      -26.7194369434        7.9764465241  MEMB      80              0.0000000000
      9106        80  SAPE      H11R          -22.3858272839      -26.3353986900        8.5785569048  MEMB      80              0.0000000000
      9107        80  SAPE      C212          -23.4774811152      -26.2540125016        6.7539951915  MEMB      80              0.0000000000
      9108        80  SAPE      H12R          -22.8951227704      -25.4185600949        6.3382089841  MEMB      80              0.0000000000
      9109        80  SAPE      C213          -24.5965316316      -26.5884903438        5.7721264174  MEMB      80              0.0000000000
      9110        80  SAPE      H13R          -24.5239674525      -25.8626744859        4.9341242320  MEMB      80              0.0000000000
      9111        80  SAPE      H13S          -25.6133045013      -26.3773696361        6.1669958800  MEMB      80              0.0000000000
      9112        80  SAPE      C214          -24.3768213287      -28.0194680716        5.2478454357  MEMB      80              0.0000000000
      9113        80  SAPE      H14R          -23.7926194720      -28.6718900891        5.9134687821  MEMB      80              0.0000000000
      9114        80  SAPE      C215          -24.8702784318      -28.5571141031        4.1088001401  MEMB      80              0.0000000000
      9115        80  SAPE      H15R          -24.6144081936      -29.5748066754        3.7789032659  MEMB      80              0.0000000000
      9116        80  SAPE      C216          -25.7929064612      -27.8868089024        3.1079785995  MEMB      80              0.0000000000
      9117        80  SAPE      H16R          -26.4413176244      -27.0721652789        3.4955854042  MEMB      80              0.0000000000
      9118        80  SAPE      H16S          -26.5427713498      -28.5299259348        2.5996235268  MEMB      80              0.0000000000
      9119        80  SAPE      C217          -25.0647426211      -27.1027959541        1.9309432850  MEMB      80              0.0000000000
      9120        80  SAPE      H17R          -24.2332196523      -26.5403588638        2.4069207933  MEMB      80              0.0000000000
      9121        80  SAPE      H17S          -25.8113039835      -26.3672159976        1.5623097997  MEMB      80              0.0000000000
      9122        80  SAPE      C218          -24.4111631480      -27.8857743381        0.8009451396  MEMB      80              0.0000000000
      9123        80  SAPE      H18R          -25.0683660200      -28.6561575112        0.3438738603  MEMB      80              0.0000000000
      9124        80  SAPE      H18S          -23.5303702363      -28.4837947347        1.1185876158  MEMB      80              0.0000000000
      9125        80  SAPE      C219          -23.9651396098      -26.9252619329       -0.3168107543  MEMB      80              0.0000000000
      9126        80  SAPE      H19R          -23.2718720158      -26.3077796551        0.2934485197  MEMB      80              0.0000000000
      9127        80  SAPE      H19S          -24.7530827098      -26.2393749227       -0.6949986846  MEMB      80              0.0000000000
      9128        80  SAPE      C220          -23.1960739145      -27.4902315823       -1.4569775191  MEMB      80              0.0000000000
      9129        80  SAPE      H20R          -22.9437476083      -26.6873169459       -2.1822227963  MEMB      80              0.0000000000
      9130        80  SAPE      H20S          -23.8778808404      -28.1233840602       -2.0640843129  MEMB      80              0.0000000000
      9131        80  SAPE      H20T          -22.3580141990      -28.1784455033       -1.2154452711  MEMB      80              0.0000000000
      9132        80  SAPE      C33           -19.8082118823      -31.2937438265       15.6381343290  MEMB      80              0.0000000000
      9133        80  SAPE      H3X           -20.8707543035      -31.2620505212       15.9611206096  MEMB      80              0.0000000000
      9134        80  SAPE      H3Y           -19.4722578099      -32.2887859848       16.0005523624  MEMB      80              0.0000000000
      9135        80  SAPE      C34           -19.5173224074      -31.3974052304       14.1268472872  MEMB      80              0.0000000000
      9136        80  SAPE      H4X           -18.4389423996      -31.4196127273       13.8605316762  MEMB      80              0.0000000000
      9137        80  SAPE      H4Y           -19.8950206183      -30.4627147735       13.6599221045  MEMB      80              0.0000000000
      9138        80  SAPE      C35           -20.1279663896      -32.6574495829       13.4194892803  MEMB      80              0.0000000000
      9139        80  SAPE      H5X           -21.1685113172      -32.8729371892       13.7437616964  MEMB      80              0.0000000000
      9140        80  SAPE      H5Y           -19.4370146560      -33.5100782125       13.5924942157  MEMB      80              0.0000000000
      9141        80  SAPE      C36           -19.9168635427      -32.4827313533       11.9146826400  MEMB      80              0.0000000000
      9142        80  SAPE      H6X           -18.8563373523      -32.4710459310       11.5838226047  MEMB      80              0.0000000000
      9143        80  SAPE      H6Y           -20.2213482534      -31.4244393598       11.7676182159  MEMB      80              0.0000000000
      9144        80  SAPE      C37           -20.4515564750      -33.5958586189       10.9551668075  MEMB      80              0.0000000000
      9145        80  SAPE      H7X           -21.5585045176      -33.5849210312       10.8609986692  MEMB      80              0.0000000000
      9146        80  SAPE      H7Y           -20.2102108470      -34.5387488184       11.4909196519  MEMB      80              0.0000000000
      9147        80  SAPE      C38           -19.8765555654      -33.5410728288        9.5846194174  MEMB      80              0.0000000000
      9148        80  SAPE      H8X           -20.2781179346      -34.4418577957        9.0730972241  MEMB      80              0.0000000000
      9149        80  SAPE      H8Y           -18.7846376138      -33.7441922715        9.6125246722  MEMB      80              0.0000000000
      9150        80  SAPE      C39           -20.2693756152      -32.3814401081        8.6282114080  MEMB      80              0.0000000000
      9151        80  SAPE      H9X           -19.8611614755      -31.3834872564        8.8961145773  MEMB      80              0.0000000000
      9152        80  SAPE      H9Y           -21.3789395039      -32.3440875393        8.5858565043  MEMB      80              0.0000000000
      9153        80  SAPE      C310          -19.7641248540      -32.6876965459        7.1924771881  MEMB      80              0.0000000000
      9154        80  SAPE      H10X          -20.4473348794      -33.4197581810        6.7111968860  MEMB      80              0.0000000000
      9155        80  SAPE      H10Y          -18.7527422021      -33.1424239098        7.2606641723  MEMB      80              0.0000000000
      9156        80  SAPE      C311          -19.7122009661      -31.4135369656        6.3185093736  MEMB      80              0.0000000000
      9157        80  SAPE      H11X          -19.0447609933      -30.6702974995        6.8047599345  MEMB      80              0.0000000000
      9158        80  SAPE      H11Y          -20.7452248690      -31.0047070476        6.3248869699  MEMB      80              0.0000000000
      9159        80  SAPE      C312          -19.4037500498      -31.6293583468        4.7963189253  MEMB      80              0.0000000000
      9160        80  SAPE      H12X          -20.0370382477      -32.4394327603        4.3755498387  MEMB      80              0.0000000000
      9161        80  SAPE      H12Y          -18.3254366800      -31.8948468818        4.7635110148  MEMB      80              0.0000000000
      9162        80  SAPE      C313          -19.6835940185      -30.3399790230        4.0955224061  MEMB      80              0.0000000000
      9163        80  SAPE      H13X          -19.0845687888      -29.4722678146        4.4456187120  MEMB      80              0.0000000000
      9164        80  SAPE      H13Y          -20.7839272584      -30.1986651388        4.1556714929  MEMB      80              0.0000000000
      9165        80  SAPE      C314          -19.2588920696      -30.6098065734        2.6061095941  MEMB      80              0.0000000000
      9166        80  SAPE      H14X          -18.2131724556      -30.9844448593        2.5851945219  MEMB      80              0.0000000000
      9167        80  SAPE      H14Y          -19.2073800605      -29.5816842100        2.1882201809  MEMB      80              0.0000000000
      9168        80  SAPE      C315          -20.0618071543      -31.6481987439        1.8053253841  MEMB      80              0.0000000000
      9169        80  SAPE      H15X          -19.6092543135      -32.6468381137        1.9848669523  MEMB      80              0.0000000000
      9170        80  SAPE      H15Y          -19.8764356071      -31.4471863239        0.7284994980  MEMB      80              0.0000000000
      9171        80  SAPE      C316          -21.5462363785      -31.5629381967        1.8566424624  MEMB      80              0.0000000000
      9172        80  SAPE      H16X          -21.9995383814      -30.5517927353        1.9367868746  MEMB      80              0.0000000000
      9173        80  SAPE      H16Y          -21.7057235885      -32.0622375642        2.8362270955  MEMB      80              0.0000000000
      9174        80  SAPE      C317          -22.3916304264      -32.2805165181        0.7951981911  MEMB      80              0.0000000000
      9175        80  SAPE      H17X          -22.3553570980      -31.6893928121       -0.1447886104  MEMB      80              0.0000000000
      9176        80  SAPE      H17Y          -23.3817991162      -32.3642062791        1.2920720478  MEMB      80              0.0000000000
      9177        80  SAPE      C318          -21.9820716169      -33.7167181654        0.4996928763  MEMB      80              0.0000000000
      9178        80  SAPE      H18X          -20.9782228369      -33.6351581890        0.0306985978  MEMB      80              0.0000000000
      9179        80  SAPE      H18Y          -22.6377990211      -34.1368274019       -0.2926762203  MEMB      80              0.0000000000
      9180        80  SAPE      H18Z          -21.8949698261      -34.2128348735        1.4899468965  MEMB      80              0.0000000000
      9181        81  SAPC      N             -27.0371663530       26.3594328464       22.0290275901  MEMB      81              0.0000000000
      9182        81  SAPC      C12           -26.3943510023       27.3994287860       21.0796346362  MEMB      81              0.0000000000
      9183        81  SAPC      H12A          -25.3290623018       27.4285767444       21.2548787222  MEMB      81              0.0000000000
      9184        81  SAPC      H12B          -26.8642443416       28.3222059362       21.3863635760  MEMB      81              0.0000000000
      9185        81  SAPC      C13           -28.5073900474       26.5488888329       22.1205695760  MEMB      81              0.0000000000
      9186        81  SAPC      H13A          -28.9200346187       25.8158935175       22.7979485972  MEMB      81              0.0000000000
      9187        81  SAPC      H13B          -28.7503368776       27.5090203030       22.5512949871  MEMB      81              0.0000000000
      9188        81  SAPC      H13C          -29.0745265633       26.4582958097       21.2059389123  MEMB      81              0.0000000000
      9189        81  SAPC      C14           -26.7641958979       24.9484880475       21.4453598853  MEMB      81              0.0000000000
      9190        81  SAPC      H14A          -27.3627767380       24.8707084272       20.5497867421  MEMB      81              0.0000000000
      9191        81  SAPC      H14B          -25.6952152777       24.8737328328       21.3108534463  MEMB      81              0.0000000000
      9192        81  SAPC      H14C          -27.0922088382       24.2491627764       22.2001789066  MEMB      81              0.0000000000
      9193        81  SAPC      C15           -26.4359276377       26.4773239094       23.4009473189  MEMB      81              0.0000000000
      9194        81  SAPC      H15A          -26.9147712059       25.8229238505       24.1142982036  MEMB      81              0.0000000000
      9195        81  SAPC      H15B          -25.3855762321       26.2692071155       23.2600596265  MEMB      81              0.0000000000
      9196        81  SAPC      H15C          -26.6482426393       27.5128687741       23.6222372995  MEMB      81              0.0000000000
      9197        81  SAPC      C11           -26.7004388786       27.3784017398       19.5689463680  MEMB      81              0.0000000000
      9198        81  SAPC      H11A          -26.1900793367       26.5137456723       19.0933161536  MEMB      81              0.0000000000
      9199        81  SAPC      H11B          -26.2835772334       28.3668391002       19.2799154413  MEMB      81              0.0000000000
      9200        81  SAPC      P             -28.7154536072       27.0620479587       18.0067425357  MEMB      81              0.0000000000
      9201        81  SAPC      O13           -28.5392240501       25.5809290621       17.7386069161  MEMB      81              0.0000000000
      9202        81  SAPC      O14           -30.0703725474       27.5782401806       18.1635791554  MEMB      81              0.0000000000
      9203        81  SAPC      O12           -28.0785773112       27.3791432656       19.3409844317  MEMB      81              0.0000000000
      9204        81  SAPC      O11           -27.8247250680       27.9854633609       17.1056015909  MEMB      81              0.0000000000
      9205        81  SAPC      C1            -27.8827906025       29.4118478159       17.0597881948  MEMB      81              0.0000000000
      9206        81  SAPC      HA            -28.9417407671       29.7448549206       17.1050867993  MEMB      81              0.0000000000
      9207        81  SAPC      HB            -27.3731222458       29.9269795551       17.9019274298  MEMB      81              0.0000000000
      9208        81  SAPC      C2            -27.2145145331       29.9903464746       15.8263391472  MEMB      81              0.0000000000
      9209        81  SAPC      HS            -27.3750327085       31.0849973166       15.7248777937  MEMB      81              0.0000000000
      9210        81  SAPC      O21           -27.4631212274       29.3184959050       14.5854671896  MEMB      81              0.0000000000
      9211        81  SAPC      C21           -28.7502940649       29.4191005727       14.2438376082  MEMB      81              0.0000000000
      9212        81  SAPC      O22           -29.5094508038       30.1414331198       14.8212708620  MEMB      81              0.0000000000
      9213        81  SAPC      C22           -29.0005467147       28.5884923747       13.0067813659  MEMB      81              0.0000000000
      9214        81  SAPC      H2R           -28.3707387516       28.7714168760       12.1100086440  MEMB      81              0.0000000000
      9215        81  SAPC      H2S           -28.7799294286       27.5089815452       13.1492784738  MEMB      81              0.0000000000
      9216        81  SAPC      C3            -25.6789645606       30.1176024832       15.8873954497  MEMB      81              0.0000000000
      9217        81  SAPC      HX            -25.4171177572       30.6142308697       16.8461014933  MEMB      81              0.0000000000
      9218        81  SAPC      HY            -25.3301721906       30.8036614489       15.0861540318  MEMB      81              0.0000000000
      9219        81  SAPC      O31           -25.0560450145       28.8499734414       15.8401826082  MEMB      81              0.0000000000
      9220        81  SAPC      C31           -24.3449532702       28.5185304832       14.7375208605  MEMB      81              0.0000000000
      9221        81  SAPC      O32           -23.9643490431       29.3916013770       13.9269344242  MEMB      81              0.0000000000
      9222        81  SAPC      C32           -24.1464431519       27.0687299858       14.5464093213  MEMB      81              0.0000000000
      9223        81  SAPC      H2X           -24.9247197249       26.5305639159       15.1286323669  MEMB      81              0.0000000000
      9224        81  SAPC      H2Y           -23.1843280227       26.6798657909       14.9431966737  MEMB      81              0.0000000000
      9225        81  SAPC      C23           -30.4647259907       28.6678460363       12.5984024099  MEMB      81              0.0000000000
      9226        81  SAPC      H3R           -31.1863848529       28.7702918640       13.4368733730  MEMB      81              0.0000000000
      9227        81  SAPC      H3S           -30.6209916563       27.6511509017       12.1786007085  MEMB      81              0.0000000000
      9228        81  SAPC      C24           -30.7640636837       29.5672399230       11.3997322341  MEMB      81              0.0000000000
      9229        81  SAPC      H4R           -31.7078162573       29.2682925117       10.8954681594  MEMB      81              0.0000000000
      9230        81  SAPC      H4S           -29.9700731650       29.3906364121       10.6429548396  MEMB      81              0.0000000000
      9231        81  SAPC      C25           -30.9379313957       31.0198618603       11.7132544447  MEMB      81              0.0000000000
      9232        81  SAPC      H5R           -31.7410845265       31.3324142274       12.3968156377  MEMB      81              0.0000000000
      9233        81  SAPC      C26           -30.2500793571       32.0295208392       11.1528860692  MEMB      81              0.0000000000
      9234        81  SAPC      H6R           -30.5009404277       33.0616468189       11.4388669547  MEMB      81              0.0000000000
      9235        81  SAPC      C27           -29.1882631675       32.0237559678       10.0544725725  MEMB      81              0.0000000000
      9236        81  SAPC      H7R           -29.5665196579       32.7475556126        9.3012410303  MEMB      81              0.0000000000
      9237        81  SAPC      H7S           -29.0873818696       31.0821592581        9.4734904589  MEMB      81              0.0000000000
      9238        81  SAPC      C28           -27.7943726947       32.3681767506       10.5874512772  MEMB      81              0.0000000000
      9239        81  SAPC      H8R           -27.8445390714       33.2428435251       11.2526139323  MEMB      81              0.0000000000
      9240        81  SAPC      C29           -26.6732433227       31.7177790034       10.3509392671  MEMB      81              0.0000000000
      9241        81  SAPC      H9R           -25.7702848714       32.0675087157       10.8728160941  MEMB      81              0.0000000000
      9242        81  SAPC      C210          -26.3640573299       30.4441630934        9.5698712872  MEMB      81              0.0000000000
      9243        81  SAPC      H10R          -27.2538521041       29.8052936587        9.3843131688  MEMB      81              0.0000000000
      9244        81  SAPC      H10S          -25.6230928418       29.9866136257       10.2597565330  MEMB      81              0.0000000000
      9245        81  SAPC      C211          -25.6796660860       30.8779946056        8.3176635117  MEMB      81              0.0000000000
      9246        81  SAPC      H11R          -25.1000139182       31.8073281151        8.4193646059  MEMB      81              0.0000000000
      9247        81  SAPC      C212          -25.6994839184       30.2477897265        7.0867494044  MEMB      81              0.0000000000
      9248        81  SAPC      H12R          -25.1020395833       30.6144675529        6.2390421162  MEMB      81              0.0000000000
      9249        81  SAPC      C213          -26.4509103992       28.9178834639        6.8128036417  MEMB      81              0.0000000000
      9250        81  SAPC      H13R          -26.2653216231       28.2430225561        7.6756133757  MEMB      81              0.0000000000
      9251        81  SAPC      H13S          -26.0022614544       28.4813348958        5.8949470397  MEMB      81              0.0000000000
      9252        81  SAPC      C214          -27.9453124643       29.1588121282        6.6232849498  MEMB      81              0.0000000000
      9253        81  SAPC      H14R          -28.5292959539       29.0440221442        7.5483725089  MEMB      81              0.0000000000
      9254        81  SAPC      C215          -28.5696549231       29.6362714225        5.4904393302  MEMB      81              0.0000000000
      9255        81  SAPC      H15R          -29.6520984688       29.8031475493        5.5927545964  MEMB      81              0.0000000000
      9256        81  SAPC      C216          -27.8422057497       29.8867909619        4.1681917570  MEMB      81              0.0000000000
      9257        81  SAPC      H16R          -28.0055531118       28.9753673487        3.5542319769  MEMB      81              0.0000000000
      9258        81  SAPC      H16S          -26.7618790652       30.0496255647        4.3699346291  MEMB      81              0.0000000000
      9259        81  SAPC      C217          -28.4719194562       31.0003534284        3.4825877978  MEMB      81              0.0000000000
      9260        81  SAPC      H17R          -27.8935198303       31.1859940195        2.5523651028  MEMB      81              0.0000000000
      9261        81  SAPC      H17S          -28.4355426726       31.9023139994        4.1302481669  MEMB      81              0.0000000000
      9262        81  SAPC      C218          -29.9643823540       30.7662389591        3.0433135841  MEMB      81              0.0000000000
      9263        81  SAPC      H18R          -30.7477727076       30.5914408134        3.8114705486  MEMB      81              0.0000000000
      9264        81  SAPC      H18S          -29.9498499491       29.7647348413        2.5625853037  MEMB      81              0.0000000000
      9265        81  SAPC      C219          -30.5245817238       31.8805902218        2.1647201113  MEMB      81              0.0000000000
      9266        81  SAPC      H19R          -30.0853169566       32.7773510206        2.6517385434  MEMB      81              0.0000000000
      9267        81  SAPC      H19S          -31.6231065735       31.8417899900        2.3261464865  MEMB      81              0.0000000000
      9268        81  SAPC      C220          -30.2212909533       31.7235661848        0.6333063934  MEMB      81              0.0000000000
      9269        81  SAPC      H20R          -29.1214059433       31.6395007071        0.5009922129  MEMB      81              0.0000000000
      9270        81  SAPC      H20S          -30.5999789361       32.5410743151       -0.0167665396  MEMB      81              0.0000000000
      9271        81  SAPC      H20T          -30.7128189820       30.8443437435        0.1645963811  MEMB      81              0.0000000000
      9272        81  SAPC      C33           -24.2392617859       26.5734152174       13.0928223748  MEMB      81              0.0000000000
      9273        81  SAPC      H3X           -23.9149726211       25.5110443710       13.1157498587  MEMB      81              0.0000000000
      9274        81  SAPC      H3Y           -23.4849320764       27.1408272073       12.5068607511  MEMB      81              0.0000000000
      9275        81  SAPC      C34           -25.6890165672       26.6213952832       12.5555772726  MEMB      81              0.0000000000
      9276        81  SAPC      H4X           -26.0560636293       27.6544272472       12.7356947580  MEMB      81              0.0000000000
      9277        81  SAPC      H4Y           -26.3623119819       25.8526281770       12.9914572411  MEMB      81              0.0000000000
      9278        81  SAPC      C35           -25.7363639345       26.3542556588       11.0873107167  MEMB      81              0.0000000000
      9279        81  SAPC      H5X           -25.1654554009       25.4029583870       11.0288499384  MEMB      81              0.0000000000
      9280        81  SAPC      H5Y           -25.2690183197       27.1786221792       10.5073715093  MEMB      81              0.0000000000
      9281        81  SAPC      C36           -27.0946491194       25.9377529362       10.6047230590  MEMB      81              0.0000000000
      9282        81  SAPC      H6X           -27.7778764038       26.8135486944       10.6271560604  MEMB      81              0.0000000000
      9283        81  SAPC      H6Y           -27.5806504838       25.1375538789       11.2028917418  MEMB      81              0.0000000000
      9284        81  SAPC      C37           -27.0447682373       25.5412943905        9.0825687691  MEMB      81              0.0000000000
      9285        81  SAPC      H7X           -26.3211582963       24.7009680768        9.0150308007  MEMB      81              0.0000000000
      9286        81  SAPC      H7Y           -26.7800165047       26.3648710694        8.3854684270  MEMB      81              0.0000000000
      9287        81  SAPC      C38           -28.4624344519       25.1192401268        8.5774640816  MEMB      81              0.0000000000
      9288        81  SAPC      H8X           -29.1979511451       25.9273586309        8.3767636953  MEMB      81              0.0000000000
      9289        81  SAPC      H8Y           -28.8424446873       24.3908349797        9.3253533065  MEMB      81              0.0000000000
      9290        81  SAPC      C39           -28.2863308386       24.2904790798        7.2921346750  MEMB      81              0.0000000000
      9291        81  SAPC      H9X           -29.2095709038       23.8151226044        6.8971852771  MEMB      81              0.0000000000
      9292        81  SAPC      H9Y           -27.4058645037       23.6195463218        7.3867357788  MEMB      81              0.0000000000
      9293        81  SAPC      C310          -27.8433454251       25.2213396767        6.0639829783  MEMB      81              0.0000000000
      9294        81  SAPC      H10X          -26.8611377899       25.6690683539        6.3269052835  MEMB      81              0.0000000000
      9295        81  SAPC      H10Y          -28.6353846369       25.9883982892        5.9275429774  MEMB      81              0.0000000000
      9296        81  SAPC      C311          -27.8366127980       24.4381016159        4.7315241419  MEMB      81              0.0000000000
      9297        81  SAPC      H11X          -28.7953964394       23.8768567418        4.7392167299  MEMB      81              0.0000000000
      9298        81  SAPC      H11Y          -27.0216061727       23.6834113401        4.7085563187  MEMB      81              0.0000000000
      9299        81  SAPC      C312          -27.6591006727       25.2905051524        3.4605388129  MEMB      81              0.0000000000
      9300        81  SAPC      H12X          -28.4618660187       26.0541462618        3.3784329592  MEMB      81              0.0000000000
      9301        81  SAPC      H12Y          -27.8115426562       24.5284305551        2.6666085772  MEMB      81              0.0000000000
      9302        81  SAPC      C313          -26.1753691997       25.8926165434        3.3925318619  MEMB      81              0.0000000000
      9303        81  SAPC      H13X          -25.3750303280       25.1832174676        3.6934158498  MEMB      81              0.0000000000
      9304        81  SAPC      H13Y          -26.1152205426       26.7802508511        4.0579701845  MEMB      81              0.0000000000
      9305        81  SAPC      C314          -25.8319042418       26.3783147112        1.9481021119  MEMB      81              0.0000000000
      9306        81  SAPC      H14X          -26.6194243642       27.1045754197        1.6536884315  MEMB      81              0.0000000000
      9307        81  SAPC      H14Y          -25.9167700982       25.5215060563        1.2459639469  MEMB      81              0.0000000000
      9308        81  SAPC      C315          -24.4516295717       27.1526469402        1.8368307267  MEMB      81              0.0000000000
      9309        81  SAPC      H15X          -23.6476393616       26.4159010467        2.0492606875  MEMB      81              0.0000000000
      9310        81  SAPC      H15Y          -24.4067921287       27.9352971881        2.6240849926  MEMB      81              0.0000000000
      9311        81  SAPC      C316          -24.1435567041       27.8123513488        0.4858330726  MEMB      81              0.0000000000
      9312        81  SAPC      H16X          -23.3673157115       28.5811989722        0.6874369188  MEMB      81              0.0000000000
      9313        81  SAPC      H16Y          -24.9462849542       28.4268931937        0.0250873867  MEMB      81              0.0000000000
      9314        81  SAPC      C317          -23.7747907719       26.7540075773       -0.6131653470  MEMB      81              0.0000000000
      9315        81  SAPC      H17X          -24.7184708679       26.1835120200       -0.7485297352  MEMB      81              0.0000000000
      9316        81  SAPC      H17Y          -23.0057760650       26.0311885629       -0.2660775370  MEMB      81              0.0000000000
      9317        81  SAPC      C318          -23.5045236654       27.4079271775       -1.9677411697  MEMB      81              0.0000000000
      9318        81  SAPC      H18X          -22.6574499322       28.1255273378       -1.9248747747  MEMB      81              0.0000000000
      9319        81  SAPC      H18Y          -24.4098837163       27.9975399912       -2.2265873804  MEMB      81              0.0000000000
      9320        81  SAPC      H18Z          -23.4081063758       26.5864974267       -2.7095484383  MEMB      81              0.0000000000
      9321        82  SAPS      N             -16.6919600715       36.1310597979       21.4951337622  MEMB      82              0.0000000000
      9322        82  SAPS      HN1           -15.7930115375       36.1342098497       22.0180884146  MEMB      82              0.0000000000
      9323        82  SAPS      HN2           -17.3602206579       36.8503799190       21.8380716265  MEMB      82              0.0000000000
      9324        82  SAPS      HN3           -17.2603013904       35.2627060297       21.5625856059  MEMB      82              0.0000000000
      9325        82  SAPS      C12           -16.4141190490       36.2819218532       20.0052449132  MEMB      82              0.0000000000
      9326        82  SAPS      H12A          -17.0330871515       37.1245933059       19.7347206465  MEMB      82              0.0000000000
      9327        82  SAPS      C13           -14.9604725757       36.7303205434       19.8485626370  MEMB      82              0.0000000000
      9328        82  SAPS      O13A          -14.0637317631       36.1295982672       20.5444780544  MEMB      82              0.0000000000
      9329        82  SAPS      O13B          -14.7027036735       37.3122710651       18.7679569838  MEMB      82              0.0000000000
      9330        82  SAPS      C11           -16.8641144145       35.0173537501       19.2724251254  MEMB      82              0.0000000000
      9331        82  SAPS      H11A          -16.3129023864       34.1100857544       19.6000699423  MEMB      82              0.0000000000
      9332        82  SAPS      H11B          -16.5344129032       35.1040814463       18.2150244267  MEMB      82              0.0000000000
      9333        82  SAPS      P             -19.0033048475       33.6811355204       20.0451882854  MEMB      82              0.0000000000
      9334        82  SAPS      O13           -18.8777610103       32.4197534538       19.2990555610  MEMB      82              0.0000000000
      9335        82  SAPS      O14           -18.5327231400       33.6960314909       21.4179324312  MEMB      82              0.0000000000
      9336        82  SAPS      O12           -18.3362991209       34.8663343254       19.3083563430  MEMB      82              0.0000000000
      9337        82  SAPS      O11           -20.4955324677       34.1712368516       19.9956658699  MEMB      82              0.0000000000
      9338        82  SAPS      C1            -21.4466777054       33.4423092905       19.1654442302  MEMB      82              0.0000000000
      9339        82  SAPS      HA            -21.3968529494       32.3358549215       19.2526059595  MEMB      82              0.0000000000
      9340        82  SAPS      HB            -22.3678306807       34.0500047633       19.2939141586  MEMB      82              0.0000000000
      9341        82  SAPS      C2            -21.0362982760       33.6541591406       17.6521512969  MEMB      82              0.0000000000
      9342        82  SAPS      HS            -20.1826613364       32.9955439052       17.3841015206  MEMB      82              0.0000000000
      9343        82  SAPS      O21           -20.8135382370       35.0829409487       17.4048258147  MEMB      82              0.0000000000
      9344        82  SAPS      C21           -19.9463092868       35.3563100006       16.4862029749  MEMB      82              0.0000000000
      9345        82  SAPS      O22           -19.3458673211       34.6503658582       15.7510445559  MEMB      82              0.0000000000
      9346        82  SAPS      C22           -19.8077484306       36.8355791970       16.3778212243  MEMB      82              0.0000000000
      9347        82  SAPS      H2R           -19.4612639436       37.2945549326       17.3284056686  MEMB      82              0.0000000000
      9348        82  SAPS      H2S           -18.9263574253       36.9523476378       15.7116105893  MEMB      82              0.0000000000
      9349        82  SAPS      C3            -22.2089051124       33.1351024772       16.8089882649  MEMB      82              0.0000000000
      9350        82  SAPS      HX            -23.1495825035       33.5704527410       17.2088848386  MEMB      82              0.0000000000
      9351        82  SAPS      HY            -22.2975479209       32.0314084701       16.9002192952  MEMB      82              0.0000000000
      9352        82  SAPS      O31           -22.1625765780       33.5010181564       15.4382754830  MEMB      82              0.0000000000
      9353        82  SAPS      C31           -21.6098592631       32.5849388564       14.5352357984  MEMB      82              0.0000000000
      9354        82  SAPS      O32           -20.9605144421       31.6045393977       14.7718437274  MEMB      82              0.0000000000
      9355        82  SAPS      C32           -21.8221599759       33.0969520007       13.1330888126  MEMB      82              0.0000000000
      9356        82  SAPS      H2X           -21.2788490498       34.0476452595       12.9451617233  MEMB      82              0.0000000000
      9357        82  SAPS      H2Y           -22.8847475191       33.4089295914       13.0442178130  MEMB      82              0.0000000000
      9358        82  SAPS      C23           -21.1452879239       37.5208232556       15.8968297562  MEMB      82              0.0000000000
      9359        82  SAPS      H3R           -21.3410625194       38.5123631260       16.3581780189  MEMB      82              0.0000000000
      9360        82  SAPS      H3S           -21.9746409454       36.8132007734       16.1107577249  MEMB      82              0.0000000000
      9361        82  SAPS      C24           -21.1065294526       37.7531028372       14.3130998841  MEMB      82              0.0000000000
      9362        82  SAPS      H4R           -22.0808209294       38.2286332448       14.0703091728  MEMB      82              0.0000000000
      9363        82  SAPS      H4S           -21.3067720937       36.7928234255       13.7914799101  MEMB      82              0.0000000000
      9364        82  SAPS      C25           -19.9642533524       38.5528718259       13.8123148323  MEMB      82              0.0000000000
      9365        82  SAPS      H5R           -19.7859044010       39.4639450964       14.4023464393  MEMB      82              0.0000000000
      9366        82  SAPS      C26           -19.2560070920       38.2377717569       12.7448050024  MEMB      82              0.0000000000
      9367        82  SAPS      H6R           -18.3896736430       38.8637016201       12.4846549599  MEMB      82              0.0000000000
      9368        82  SAPS      C27           -19.4544276955       36.9969544660       11.9012115039  MEMB      82              0.0000000000
      9369        82  SAPS      H7R           -20.3769851190       36.8543837777       11.2988138576  MEMB      82              0.0000000000
      9370        82  SAPS      H7S           -19.5861946372       36.0970557408       12.5392873123  MEMB      82              0.0000000000
      9371        82  SAPS      C28           -18.2669835472       36.7462377497       10.9411966669  MEMB      82              0.0000000000
      9372        82  SAPS      H8R           -17.3049142046       36.5315057093       11.4293697207  MEMB      82              0.0000000000
      9373        82  SAPS      C29           -18.3057630877       36.6959419188        9.6355865448  MEMB      82              0.0000000000
      9374        82  SAPS      H9R           -17.2805737135       36.6219554296        9.2437797772  MEMB      82              0.0000000000
      9375        82  SAPS      C210          -19.4775206789       36.8649445686        8.6992877958  MEMB      82              0.0000000000
      9376        82  SAPS      H10R          -19.1677912554       37.6454833427        7.9718619717  MEMB      82              0.0000000000
      9377        82  SAPS      H10S          -20.3701320308       37.2749913470        9.2183526072  MEMB      82              0.0000000000
      9378        82  SAPS      C211          -19.8235369403       35.5359626546        8.0613577628  MEMB      82              0.0000000000
      9379        82  SAPS      H11R          -19.9407564480       34.7815033936        8.8532235616  MEMB      82              0.0000000000
      9380        82  SAPS      C212          -19.6672210968       35.0692435284        6.8008392690  MEMB      82              0.0000000000
      9381        82  SAPS      H12R          -20.1682805703       34.1546140370        6.4509932888  MEMB      82              0.0000000000
      9382        82  SAPS      C213          -19.1621284649       35.8557175039        5.6441235032  MEMB      82              0.0000000000
      9383        82  SAPS      H13R          -18.7769944130       35.1550205782        4.8727503921  MEMB      82              0.0000000000
      9384        82  SAPS      H13S          -18.3130006776       36.4763114260        6.0021261151  MEMB      82              0.0000000000
      9385        82  SAPS      C214          -20.0091131839       36.9907257803        5.0157869543  MEMB      82              0.0000000000
      9386        82  SAPS      H14R          -20.2337948226       37.8062852822        5.7189089483  MEMB      82              0.0000000000
      9387        82  SAPS      C215          -20.4263022574       37.0613746983        3.7503091933  MEMB      82              0.0000000000
      9388        82  SAPS      H15R          -21.0623089740       37.9191673836        3.4863247275  MEMB      82              0.0000000000
      9389        82  SAPS      C216          -20.0959407830       35.9954080438        2.6797418244  MEMB      82              0.0000000000
      9390        82  SAPS      H16R          -20.8701111223       36.0558576351        1.8851811427  MEMB      82              0.0000000000
      9391        82  SAPS      H16S          -20.1892346001       34.9665057629        3.0883711726  MEMB      82              0.0000000000
      9392        82  SAPS      C217          -18.7078468957       36.1924989247        2.0213156841  MEMB      82              0.0000000000
      9393        82  SAPS      H17R          -18.4965879092       35.3984711609        1.2735114595  MEMB      82              0.0000000000
      9394        82  SAPS      H17S          -17.9846036308       36.2879173098        2.8592517424  MEMB      82              0.0000000000
      9395        82  SAPS      C218          -18.5373986807       37.5339392163        1.2962302780  MEMB      82              0.0000000000
      9396        82  SAPS      H18R          -17.5658294030       37.3326515790        0.7963727464  MEMB      82              0.0000000000
      9397        82  SAPS      H18S          -18.5864375810       38.3937354545        1.9981320448  MEMB      82              0.0000000000
      9398        82  SAPS      C219          -19.6925513123       37.9859771395        0.3278917125  MEMB      82              0.0000000000
      9399        82  SAPS      H19R          -19.5013037318       38.9850267749       -0.1189260692  MEMB      82              0.0000000000
      9400        82  SAPS      H19S          -20.6033107552       38.2460681261        0.9085726288  MEMB      82              0.0000000000
      9401        82  SAPS      C220          -20.1606083359       36.9649488428       -0.7296847482  MEMB      82              0.0000000000
      9402        82  SAPS      H20R          -20.5592693065       36.0223023214       -0.2974721412  MEMB      82              0.0000000000
      9403        82  SAPS      H20S          -19.2750356737       36.6877417406       -1.3406158844  MEMB      82              0.0000000000
      9404        82  SAPS      H20T          -20.8974656813       37.5110576967       -1.3566833928  MEMB      82              0.0000000000
      9405        82  SAPS      C33           -21.5192523926       32.0702557830       12.0339238234  MEMB      82              0.0000000000
      9406        82  SAPS      H3X           -22.0994218047       31.1255246564       12.1060856782  MEMB      82              0.0000000000
      9407        82  SAPS      H3Y           -20.4581546276       31.7560671670       12.1322999513  MEMB      82              0.0000000000
      9408        82  SAPS      C34           -21.6696539090       32.5901259371       10.6364496534  MEMB      82              0.0000000000
      9409        82  SAPS      H4X           -21.3050855329       33.6247988156       10.8121277216  MEMB      82              0.0000000000
      9410        82  SAPS      H4Y           -22.7475652340       32.6698080423       10.3793906218  MEMB      82              0.0000000000
      9411        82  SAPS      C35           -20.8968450401       31.5767983755        9.6399773797  MEMB      82              0.0000000000
      9412        82  SAPS      H5X           -21.2133539461       30.5336202581        9.8542725022  MEMB      82              0.0000000000
      9413        82  SAPS      H5Y           -19.7995307721       31.7493334216        9.6612902717  MEMB      82              0.0000000000
      9414        82  SAPS      C36           -21.2028347683       31.9189269735        8.1843473466  MEMB      82              0.0000000000
      9415        82  SAPS      H6X           -20.9847282969       32.9896678846        7.9836872062  MEMB      82              0.0000000000
      9416        82  SAPS      H6Y           -22.2820149856       31.7464740600        7.9844690941  MEMB      82              0.0000000000
      9417        82  SAPS      C37           -20.4355147001       31.0309207363        7.1257929634  MEMB      82              0.0000000000
      9418        82  SAPS      H7X           -20.6690158298       31.1419775430        6.0453001717  MEMB      82              0.0000000000
      9419        82  SAPS      H7Y           -20.8826658772       30.0504671175        7.3961392688  MEMB      82              0.0000000000
      9420        82  SAPS      C38           -18.9223772190       30.9062759941        7.2777921768  MEMB      82              0.0000000000
      9421        82  SAPS      H8X           -18.6415096042       30.1846605216        6.4811081421  MEMB      82              0.0000000000
      9422        82  SAPS      H8Y           -18.5697466404       30.5364373078        8.2642971361  MEMB      82              0.0000000000
      9423        82  SAPS      C39           -18.1197179826       32.2130179888        6.9700616861  MEMB      82              0.0000000000
      9424        82  SAPS      H9X           -18.4872995579       33.0065538120        7.6552656924  MEMB      82              0.0000000000
      9425        82  SAPS      H9Y           -18.2999956777       32.4537466773        5.9005427808  MEMB      82              0.0000000000
      9426        82  SAPS      C310          -16.6439659949       32.0006090055        7.2975435012  MEMB      82              0.0000000000
      9427        82  SAPS      H10X          -16.2655583017       31.0851422403        6.7945032021  MEMB      82              0.0000000000
      9428        82  SAPS      H10Y          -16.5405533784       31.9452267403        8.4023329095  MEMB      82              0.0000000000
      9429        82  SAPS      C311          -15.7779971219       33.1904538424        6.8923047446  MEMB      82              0.0000000000
      9430        82  SAPS      H11X          -16.0498032324       33.5031309680        5.8614432356  MEMB      82              0.0000000000
      9431        82  SAPS      H11Y          -14.6945975453       32.9575729626        6.9718842119  MEMB      82              0.0000000000
      9432        82  SAPS      C312          -16.1638732225       34.3966216478        7.6400785634  MEMB      82              0.0000000000
      9433        82  SAPS      H12X          -16.2966847576       34.1071329292        8.7044459293  MEMB      82              0.0000000000
      9434        82  SAPS      H12Y          -17.1808716329       34.7096719929        7.3206497795  MEMB      82              0.0000000000
      9435        82  SAPS      C313          -15.2007340653       35.5829577327        7.4392183999  MEMB      82              0.0000000000
      9436        82  SAPS      H13X          -14.2717347651       35.4264140177        8.0280956283  MEMB      82              0.0000000000
      9437        82  SAPS      H13Y          -15.7346501022       36.4023212368        7.9663788798  MEMB      82              0.0000000000
      9438        82  SAPS      C314          -14.9160189039       35.9693704567        5.9535132692  MEMB      82              0.0000000000
      9439        82  SAPS      H14X          -15.8667092273       35.7451220108        5.4241543657  MEMB      82              0.0000000000
      9440        82  SAPS      H14Y          -14.2589335214       35.1826664640        5.5249614211  MEMB      82              0.0000000000
      9441        82  SAPS      C315          -14.3908812771       37.4149341108        5.8210653585  MEMB      82              0.0000000000
      9442        82  SAPS      H15X          -13.6707659249       37.4799857321        6.6645830372  MEMB      82              0.0000000000
      9443        82  SAPS      H15Y          -15.2604024795       38.0483911420        6.0985289590  MEMB      82              0.0000000000
      9444        82  SAPS      C316          -13.9891251608       37.7980171064        4.4665705467  MEMB      82              0.0000000000
      9445        82  SAPS      H16X          -13.5821638432       36.8962626655        3.9610587187  MEMB      82              0.0000000000
      9446        82  SAPS      H16Y          -13.1209157514       38.4872324631        4.5408391749  MEMB      82              0.0000000000
      9447        82  SAPS      C317          -15.0364419724       38.5333768762        3.7059668531  MEMB      82              0.0000000000
      9448        82  SAPS      H17X          -15.3591990894       39.4294942834        4.2779120948  MEMB      82              0.0000000000
      9449        82  SAPS      H17Y          -15.9100697584       37.8628112436        3.5595519076  MEMB      82              0.0000000000
      9450        82  SAPS      C318          -14.5835219261       38.9921350782        2.3239436036  MEMB      82              0.0000000000
      9451        82  SAPS      H18X          -15.4761795295       39.1530891173        1.6824001304  MEMB      82              0.0000000000
      9452        82  SAPS      H18Y          -13.9750655087       38.2038341367        1.8313144206  MEMB      82              0.0000000000
      9453        82  SAPS      H18Z          -13.9126147578       39.8773167555        2.3495915440  MEMB      82              0.0000000000
      9454        83  CHL1      C3             34.2280166248       18.7564626618       17.3047350000  MEMB      83              0.0000000000
      9455        83  CHL1      H3             33.2784664837       18.2548336305       17.0200450000  MEMB      83              0.0000000000
      9456        83  CHL1      O3             34.3393441176       18.6164716698       18.6952650000  MEMB      83              0.0000000000
      9457        83  CHL1      H3'            34.2464713161       17.7150539684       19.0121550000  MEMB      83              0.0000000000
      9458        83  CHL1      C4             35.4213401199       18.1161880606       16.6059850000  MEMB      83              0.0000000000
      9459        83  CHL1      H4A            36.3548820695       18.6459837212       16.8925550000  MEMB      83              0.0000000000
      9460        83  CHL1      H4B            35.5172696330       17.0619135177       16.9430750000  MEMB      83              0.0000000000
      9461        83  CHL1      C5             35.2811206452       18.1214333099       15.1209750000  MEMB      83              0.0000000000
      9462        83  CHL1      C6             35.4014714934       17.0103404883       14.2871250000  MEMB      83              0.0000000000
      9463        83  CHL1      H6             35.6187913618       15.9719053152       14.5776850000  MEMB      83              0.0000000000
      9464        83  CHL1      C7             35.1276188284       17.0807164379       12.8153450000  MEMB      83              0.0000000000
      9465        83  CHL1      H7A            35.8952124608       16.4505584825       12.3173250000  MEMB      83              0.0000000000
      9466        83  CHL1      H7B            34.0745139158       16.7778590570       12.6320850000  MEMB      83              0.0000000000
      9467        83  CHL1      C8             35.2719729751       18.4314463565       12.1510550000  MEMB      83              0.0000000000
      9468        83  CHL1      H8             36.3300671699       18.7642434428       12.0876850000  MEMB      83              0.0000000000
      9469        83  CHL1      C14            34.6444003361       18.4921555158       10.7361950000  MEMB      83              0.0000000000
      9470        83  CHL1      H14            33.5542964533       18.4544107095       10.9473150000  MEMB      83              0.0000000000
      9471        83  CHL1      C15            35.0010872981       17.3889878306        9.7097850000  MEMB      83              0.0000000000
      9472        83  CHL1      H15A           36.1086302302       17.4126168989        9.6255050000  MEMB      83              0.0000000000
      9473        83  CHL1      H15B           34.7032513573       16.3592705246       10.0018550000  MEMB      83              0.0000000000
      9474        83  CHL1      C16            34.5387250903       17.8974037538        8.3565350000  MEMB      83              0.0000000000
      9475        83  CHL1      H16A           35.4123415799       17.8404080984        7.6725250000  MEMB      83              0.0000000000
      9476        83  CHL1      H16B           33.7495027106       17.2401270713        7.9329350000  MEMB      83              0.0000000000
      9477        83  CHL1      C17            34.0038349584       19.3760808273        8.5929650000  MEMB      83              0.0000000000
      9478        83  CHL1      H17            32.9069498241       19.3344778961        8.7644750000  MEMB      83              0.0000000000
      9479        83  CHL1      C13            34.6830494137       19.8082524086        9.9134350000  MEMB      83              0.0000000000
      9480        83  CHL1      C18            36.1905044943       20.2594793329        9.7670350000  MEMB      83              0.0000000000
      9481        83  CHL1      H18A           36.7412332876       19.5064689319        9.1637250000  MEMB      83              0.0000000000
      9482        83  CHL1      H18B           36.2545958788       21.2965174570        9.3736050000  MEMB      83              0.0000000000
      9483        83  CHL1      H18C           36.7297898310       20.2820374375       10.7381050000  MEMB      83              0.0000000000
      9484        83  CHL1      C12            33.9721088080       20.8375573122       10.7563450000  MEMB      83              0.0000000000
      9485        83  CHL1      H12A           33.8968951003       21.8088564732       10.2222550000  MEMB      83              0.0000000000
      9486        83  CHL1      H12B           32.9217631359       20.4813434669       10.8212250000  MEMB      83              0.0000000000
      9487        83  CHL1      C11            34.5852308684       20.9187293319       12.1871750000  MEMB      83              0.0000000000
      9488        83  CHL1      H11A           35.6628478788       21.1882929227       12.2065650000  MEMB      83              0.0000000000
      9489        83  CHL1      H11B           34.1284193228       21.7770672772       12.7246750000  MEMB      83              0.0000000000
      9490        83  CHL1      C9             34.5492233931       19.4938371872       12.9154350000  MEMB      83              0.0000000000
      9491        83  CHL1      H9             33.4688542668       19.2392817395       12.9635150000  MEMB      83              0.0000000000
      9492        83  CHL1      C10            34.8764958806       19.5147487298       14.5047650000  MEMB      83              0.0000000000
      9493        83  CHL1      C19            36.1388909686       20.3756790445       14.7024450000  MEMB      83              0.0000000000
      9494        83  CHL1      H19A           35.8716919045       21.3646129617       14.2724050000  MEMB      83              0.0000000000
      9495        83  CHL1      H19B           36.3689016431       20.5063050807       15.7814950000  MEMB      83              0.0000000000
      9496        83  CHL1      H19C           37.0325245566       19.9653512610       14.1853450000  MEMB      83              0.0000000000
      9497        83  CHL1      C1             33.7738095542       20.2435391181       15.3247850000  MEMB      83              0.0000000000
      9498        83  CHL1      H1A            33.7098469246       21.3397360006       15.1557150000  MEMB      83              0.0000000000
      9499        83  CHL1      H1B            32.7927844333       19.7453960948       15.1706150000  MEMB      83              0.0000000000
      9500        83  CHL1      C2             33.9248960041       20.1649888823       16.8619550000  MEMB      83              0.0000000000
      9501        83  CHL1      H2A            32.9333240367       20.4218111079       17.2922450000  MEMB      83              0.0000000000
      9502        83  CHL1      H2B            34.7325998384       20.8106216463       17.2682750000  MEMB      83              0.0000000000
      9503        83  CHL1      C20            34.3421445218       20.2741567976        7.3435650000  MEMB      83              0.0000000000
      9504        83  CHL1      H20            35.4187621532       20.3522412162        7.0806250000  MEMB      83              0.0000000000
      9505        83  CHL1      C21            33.8986575594       21.6869325615        7.4882250000  MEMB      83              0.0000000000
      9506        83  CHL1      H21A           33.8024666706       22.0628757080        6.4472050000  MEMB      83              0.0000000000
      9507        83  CHL1      H21B           34.7041793644       22.2022627497        8.0538250000  MEMB      83              0.0000000000
      9508        83  CHL1      H21C           32.9243644466       21.6903382734        8.0221450000  MEMB      83              0.0000000000
      9509        83  CHL1      C22            33.7790551790       19.6932973659        6.0453950000  MEMB      83              0.0000000000
      9510        83  CHL1      H22A           34.0056777971       20.3995935330        5.2182750000  MEMB      83              0.0000000000
      9511        83  CHL1      H22B           34.2806430668       18.7542154197        5.7278150000  MEMB      83              0.0000000000
      9512        83  CHL1      C23            32.2395813676       19.5847576030        5.8880950000  MEMB      83              0.0000000000
      9513        83  CHL1      H23A           31.7726658800       19.0864855436        6.7644750000  MEMB      83              0.0000000000
      9514        83  CHL1      H23B           31.7812099662       20.5946355814        5.8220350000  MEMB      83              0.0000000000
      9515        83  CHL1      C24            31.7341544009       18.6747908168        4.7752550000  MEMB      83              0.0000000000
      9516        83  CHL1      H24A           32.2329758292       19.1516205664        3.9045450000  MEMB      83              0.0000000000
      9517        83  CHL1      H24B           32.1929684786       17.6680719898        4.8767950000  MEMB      83              0.0000000000
      9518        83  CHL1      C25            30.2250366546       18.6784777701        4.4740450000  MEMB      83              0.0000000000
      9519        83  CHL1      H25            29.7968869890       18.2948246831        5.4247450000  MEMB      83              0.0000000000
      9520        83  CHL1      C26            29.7927466685       20.1285831673        4.1305050000  MEMB      83              0.0000000000
      9521        83  CHL1      H26A           29.9517684997       20.9057053050        4.9083950000  MEMB      83              0.0000000000
      9522        83  CHL1      H26B           30.4357545475       20.4848228368        3.2974650000  MEMB      83              0.0000000000
      9523        83  CHL1      H26C           28.7541331898       20.2900150180        3.7705850000  MEMB      83              0.0000000000
      9524        83  CHL1      C27            29.8148520666       17.5758046962        3.4302950000  MEMB      83              0.0000000000
      9525        83  CHL1      H27A           30.2318854260       16.5808910751        3.6959150000  MEMB      83              0.0000000000
      9526        83  CHL1      H27B           28.7056161230       17.6235691528        3.4706450000  MEMB      83              0.0000000000
      9527        83  CHL1      H27C           30.2723508320       17.7159169558        2.4276050000  MEMB      83              0.0000000000
      9528        84  OSM       N              37.0124284693      -17.4208773977       22.1871177342  MEMB      84              0.0000000000
      9529        84  OSM       C15            36.7229088835      -16.5902272343       23.4389344699  MEMB      84              0.0000000000
      9530        84  OSM       H15A           36.7585151958      -15.5242261320       23.2693060029  MEMB      84              0.0000000000
      9531        84  OSM       H15B           37.2673047832      -16.9344895261       24.3058350279  MEMB      84              0.0000000000
      9532        84  OSM       H15C           35.6581067670      -16.7411898668       23.5379637147  MEMB      84              0.0000000000
      9533        84  OSM       C14            38.2810401184      -17.0450693903       21.4799224640  MEMB      84              0.0000000000
      9534        84  OSM       H14A           38.4548754440      -17.7566802709       20.6863284070  MEMB      84              0.0000000000
      9535        84  OSM       H14B           39.0284507841      -16.9067520509       22.2471550057  MEMB      84              0.0000000000
      9536        84  OSM       H14C           38.0762921536      -16.1281865602       20.9471899683  MEMB      84              0.0000000000
      9537        84  OSM       C13            36.8656883756      -18.9427939777       22.4624402421  MEMB      84              0.0000000000
      9538        84  OSM       H13A           36.8384531951      -19.4652857978       21.5176331172  MEMB      84              0.0000000000
      9539        84  OSM       H13B           35.9557106748      -19.1517181838       23.0052948468  MEMB      84              0.0000000000
      9540        84  OSM       H13C           37.7722926332      -19.1991092773       22.9904281788  MEMB      84              0.0000000000
      9541        84  OSM       C12            35.9872815891      -17.0643517633       21.1539718518  MEMB      84              0.0000000000
      9542        84  OSM       H12A           36.3919015996      -17.3948814534       20.2087561225  MEMB      84              0.0000000000
      9543        84  OSM       H12B           35.8582968947      -15.9927145460       21.1171379724  MEMB      84              0.0000000000
      9544        84  OSM       C11            34.5678043119      -17.6069993111       21.3103041521  MEMB      84              0.0000000000
      9545        84  OSM       H11A           33.8185110147      -17.0178555563       20.7395238992  MEMB      84              0.0000000000
      9546        84  OSM       H11B           34.2878609618      -17.4359798324       22.3717677559  MEMB      84              0.0000000000
      9547        84  OSM       P              33.4535226336      -19.6105694310       19.8247103190  MEMB      84              0.0000000000
      9548        84  OSM       O13            33.5322614969      -21.0287296675       19.7500035673  MEMB      84              0.0000000000
      9549        84  OSM       O14            32.0804943198      -19.0946220330       19.9500811087  MEMB      84              0.0000000000
      9550        84  OSM       O11            34.0560426689      -18.9545361929       18.4311591597  MEMB      84              0.0000000000
      9551        84  OSM       O12            34.3993125293      -19.0138874983       21.0113549313  MEMB      84              0.0000000000
      9552        84  OSM       C1S            35.4303184144      -19.3802720244       18.1304235115  MEMB      84              0.0000000000
      9553        84  OSM       H1S            35.8602083462      -20.2748427321       18.6296819333  MEMB      84              0.0000000000
      9554        84  OSM       H1T            36.1704355088      -18.6220677760       18.4646000347  MEMB      84              0.0000000000
      9555        84  OSM       NF             36.8492926658      -20.2565353017       16.2780781756  MEMB      84              0.0000000000
      9556        84  OSM       HNF            37.6774665689      -19.7373161217       16.0817403297  MEMB      84              0.0000000000
      9557        84  OSM       C2S            35.6336721933      -19.4608653590       16.5708054299  MEMB      84              0.0000000000
      9558        84  OSM       H2S            34.7206648374      -19.9666844317       16.1901669496  MEMB      84              0.0000000000
      9559        84  OSM       C3S            35.6600698419      -18.0666704967       15.9520221759  MEMB      84              0.0000000000
      9560        84  OSM       H3S            36.4552388717      -17.4881441406       16.4690663581  MEMB      84              0.0000000000
      9561        84  OSM       O3             34.4766904978      -17.2952914441       16.3259847007  MEMB      84              0.0000000000
      9562        84  OSM       HO3            34.0435603858      -17.8786525484       16.9534305437  MEMB      84              0.0000000000
      9563        84  OSM       C4S            35.8569362694      -18.2457440498       14.4895557779  MEMB      84              0.0000000000
      9564        84  OSM       H4S            35.2569253017      -18.9307205045       13.8724707404  MEMB      84              0.0000000000
      9565        84  OSM       C5S            36.7273333915      -17.4487750924       13.7785970641  MEMB      84              0.0000000000
      9566        84  OSM       H5S            37.2933918934      -16.6253797197       14.2385944080  MEMB      84              0.0000000000
      9567        84  OSM       C6S            36.9212750198      -17.5752750556       12.2719950224  MEMB      84              0.0000000000
      9568        84  OSM       H6S            37.8941255102      -18.0210676987       11.9734122602  MEMB      84              0.0000000000
      9569        84  OSM       H6T            37.0689853305      -16.5387503892       11.9003508564  MEMB      84              0.0000000000
      9570        84  OSM       C7S            35.9367425237      -18.3562219997       11.4209943037  MEMB      84              0.0000000000
      9571        84  OSM       H7S            34.8972658193      -17.9846599206       11.5464968659  MEMB      84              0.0000000000
      9572        84  OSM       H7T            36.0239755609      -19.4196378806       11.7306038563  MEMB      84              0.0000000000
      9573        84  OSM       C8S            36.2647516163      -18.3247188753        9.9505622459  MEMB      84              0.0000000000
      9574        84  OSM       H8S            35.4979650382      -19.0183490484        9.5440690616  MEMB      84              0.0000000000
      9575        84  OSM       H8T            37.2205390964      -18.8179545639        9.6721568984  MEMB      84              0.0000000000
      9576        84  OSM       C9S            36.3327489221      -16.9321776672        9.2114851868  MEMB      84              0.0000000000
      9577        84  OSM       H9S            36.4828446791      -17.1574634987        8.1339696764  MEMB      84              0.0000000000
      9578        84  OSM       H9T            37.1943140356      -16.3834674239        9.6484559883  MEMB      84              0.0000000000
      9579        84  OSM       C10S           35.0183857573      -16.1593046406        9.2577265667  MEMB      84              0.0000000000
      9580        84  OSM       H10S           34.9289701772      -15.7557779069       10.2889848499  MEMB      84              0.0000000000
      9581        84  OSM       H10T           34.2495923385      -16.9187992666        8.9999559216  MEMB      84              0.0000000000
      9582        84  OSM       C11S           34.6596934191      -15.1006872623        8.1210191828  MEMB      84              0.0000000000
      9583        84  OSM       H11S           35.4774919405      -14.3522688946        8.0475589394  MEMB      84              0.0000000000
      9584        84  OSM       H11T           33.6838504127      -14.5839548033        8.2436503010  MEMB      84              0.0000000000
      9585        84  OSM       C12S           34.5251396636      -15.7622272627        6.7307199370  MEMB      84              0.0000000000
      9586        84  OSM       H12S           33.4728491482      -16.0662694025        6.5448061549  MEMB      84              0.0000000000
      9587        84  OSM       H12T           34.9774225637      -16.7747987551        6.7975064149  MEMB      84              0.0000000000
      9588        84  OSM       C13S           35.1011204239      -14.8883893616        5.5756383549  MEMB      84              0.0000000000
      9589        84  OSM       H13S           36.1429053264      -14.5710220573        5.7953734309  MEMB      84              0.0000000000
      9590        84  OSM       H13T           34.5473468491      -13.9330486152        5.4532459074  MEMB      84              0.0000000000
      9591        84  OSM       C14S           35.3300423689      -15.6649746775        4.2677613604  MEMB      84              0.0000000000
      9592        84  OSM       H14S           34.3705183523      -16.2122994837        4.1491437073  MEMB      84              0.0000000000
      9593        84  OSM       H14T           36.1217094374      -16.4239571571        4.4453289391  MEMB      84              0.0000000000
      9594        84  OSM       C15S           35.7999361113      -14.7436342242        3.1611199688  MEMB      84              0.0000000000
      9595        84  OSM       H15S           36.7716223044      -14.2638522961        3.4059787981  MEMB      84              0.0000000000
      9596        84  OSM       H15T           34.9503551609      -14.0418911249        3.0193805228  MEMB      84              0.0000000000
      9597        84  OSM       C16S           35.8234872292      -15.4259563779        1.7663065770  MEMB      84              0.0000000000
      9598        84  OSM       H16S           36.2589812157      -14.7274596164        1.0201373049  MEMB      84              0.0000000000
      9599        84  OSM       H16T           34.7917779483      -15.6219194759        1.4036833257  MEMB      84              0.0000000000
      9600        84  OSM       C17S           36.6676138401      -16.6584343639        1.7187196162  MEMB      84              0.0000000000
      9601        84  OSM       H17S           36.1473425671      -17.4222142384        2.3353866206  MEMB      84              0.0000000000
      9602        84  OSM       H17T           37.6172881752      -16.5101683926        2.2759061047  MEMB      84              0.0000000000
      9603        84  OSM       C18S           37.0003077113      -17.1759714365        0.3562497269  MEMB      84              0.0000000000
      9604        84  OSM       H18S           36.1065288814      -17.2665380641       -0.2974157769  MEMB      84              0.0000000000
      9605        84  OSM       H18T           37.5174432038      -18.1586776406        0.3906089319  MEMB      84              0.0000000000
      9606        84  OSM       H18U           37.6007685819      -16.4984057169       -0.2877026741  MEMB      84              0.0000000000
      9607        84  OSM       C1F            36.7749356754      -21.6298939495       16.3416187416  MEMB      84              0.0000000000
      9608        84  OSM       OF             35.7037063966      -22.2702513143       16.5933953847  MEMB      84              0.0000000000
      9609        84  OSM       C2F            38.0429556244      -22.4217915833       16.1692714121  MEMB      84              0.0000000000
      9610        84  OSM       H2F            37.9328915830      -23.3351260045       16.7921900850  MEMB      84              0.0000000000
      9611        84  OSM       H2G            38.9904982523      -21.8906523317       16.4024559873  MEMB      84              0.0000000000
      9612        84  OSM       C3F            38.0007637551      -22.8807579809       14.7107703285  MEMB      84              0.0000000000
      9613        84  OSM       H3F            37.0379807313      -23.3282757600       14.3835125314  MEMB      84              0.0000000000
      9614        84  OSM       H3G            38.7815912178      -23.6405169429       14.4930633429  MEMB      84              0.0000000000
      9615        84  OSM       C4F            38.3774966212      -21.7219061597       13.7814464562  MEMB      84              0.0000000000
      9616        84  OSM       H4F            39.3436914339      -21.2488627887       14.0589684388  MEMB      84              0.0000000000
      9617        84  OSM       H4G            37.5846011098      -20.9436800800       13.7802255582  MEMB      84              0.0000000000
      9618        84  OSM       C5F            38.4041015027      -22.1212310723       12.3024650142  MEMB      84              0.0000000000
      9619        84  OSM       H5F            37.4830671957      -22.6763181934       12.0233676577  MEMB      84              0.0000000000
      9620        84  OSM       H5G            39.1527803519      -22.9336540942       12.1851237454  MEMB      84              0.0000000000
      9621        84  OSM       C6F            38.7673496676      -21.0026357178       11.2879965650  MEMB      84              0.0000000000
      9622        84  OSM       H6F            38.0204318819      -20.1855446795       11.1942023718  MEMB      84              0.0000000000
      9623        84  OSM       H6G            38.9038649301      -21.3456562333       10.2401317490  MEMB      84              0.0000000000
      9624        84  OSM       C7F            40.0897838759      -20.2926825125       11.5904395946  MEMB      84              0.0000000000
      9625        84  OSM       H7F            40.9030295326      -21.0007440640       11.8580242151  MEMB      84              0.0000000000
      9626        84  OSM       H7G            39.9679298049      -19.5166528409       12.3760920206  MEMB      84              0.0000000000
      9627        84  OSM       C8F            40.5534597324      -19.5177933653       10.4144112776  MEMB      84              0.0000000000
      9628        84  OSM       H8F            41.3314804579      -18.7699125471       10.6783791804  MEMB      84              0.0000000000
      9629        84  OSM       H8G            39.6432422334      -18.9323835883       10.1631736103  MEMB      84              0.0000000000
      9630        84  OSM       C9F            41.0810264108      -20.2830571375        9.2108216348  MEMB      84              0.0000000000
      9631        84  OSM       H9F            42.0433079059      -20.8158230748        9.2240296703  MEMB      84              0.0000000000
      9632        84  OSM       C10F           40.5342951661      -20.5920989586        8.0081815328  MEMB      84              0.0000000000
      9633        84  OSM       H10F           41.1893659697      -21.1953299128        7.3624303400  MEMB      84              0.0000000000
      9634        84  OSM       C11F           39.1699952740      -20.2829560910        7.4834704558  MEMB      84              0.0000000000
      9635        84  OSM       H11F           39.3709615580      -19.7687984435        6.5193261108  MEMB      84              0.0000000000
      9636        84  OSM       H11G           38.5874340066      -19.5993354436        8.1373870950  MEMB      84              0.0000000000
      9637        84  OSM       C12F           38.3753708904      -21.5378286087        7.2349242346  MEMB      84              0.0000000000
      9638        84  OSM       H12F           38.1415614744      -22.1640165290        8.1223603069  MEMB      84              0.0000000000
      9639        84  OSM       H12G           38.9392805380      -22.1433730728        6.4935448824  MEMB      84              0.0000000000
      9640        84  OSM       C13F           37.0207295609      -21.2370694829        6.5115770667  MEMB      84              0.0000000000
      9641        84  OSM       H13F           36.4885949738      -20.7388652609        7.3499959929  MEMB      84              0.0000000000
      9642        84  OSM       H13G           36.4461104557      -22.1735972520        6.3471097740  MEMB      84              0.0000000000
      9643        84  OSM       C14F           37.0360166920      -20.4999264181        5.1724648230  MEMB      84              0.0000000000
      9644        84  OSM       H14F           37.6690594667      -21.1570820649        4.5386478672  MEMB      84              0.0000000000
      9645        84  OSM       H14G           37.3404703295      -19.4409100977        5.3142854841  MEMB      84              0.0000000000
      9646        84  OSM       C15F           35.6874870137      -20.2626486293        4.3822505191  MEMB      84              0.0000000000
      9647        84  OSM       H15F           36.0541888166      -19.8160144734        3.4333733273  MEMB      84              0.0000000000
      9648        84  OSM       H15G           35.0663620167      -19.4603033777        4.8347634650  MEMB      84              0.0000000000
      9649        84  OSM       C16F           34.9778506861      -21.5784939307        4.1184823220  MEMB      84              0.0000000000
      9650        84  OSM       H16F           34.6337189475      -21.9178328622        5.1188544511  MEMB      84              0.0000000000
      9651        84  OSM       H16G           35.7586763002      -22.2793342081        3.7531676637  MEMB      84              0.0000000000
      9652        84  OSM       C17F           33.8102269478      -21.4797762456        3.0699303329  MEMB      84              0.0000000000
      9653        84  OSM       H17F           33.3116973802      -20.4961481888        3.2050808096  MEMB      84              0.0000000000
      9654        84  OSM       H17G           33.1400391811      -22.3127247843        3.3722008251  MEMB      84              0.0000000000
      9655        84  OSM       C18F           34.2682990173      -21.7696712782        1.6079079391  MEMB      84              0.0000000000
      9656        84  OSM       H18F           33.4341073003      -21.5873964419        0.8971188179  MEMB      84              0.0000000000
      9657        84  OSM       H18G           34.5712013174      -22.8351297303        1.5220608014  MEMB      84              0.0000000000
      9658        84  OSM       H18H           35.1133338260      -21.0725183252        1.4229328892  MEMB      84              0.0000000000
      9659        85  SAPS      N              29.6104620952       25.0697264249       22.1544210178  MEMB      85              0.0000000000
      9660        85  SAPS      HN1            28.9526346626       25.2992763959       22.9265414586  MEMB      85              0.0000000000
      9661        85  SAPS      HN2            29.5489014008       24.0780247251       21.8472758468  MEMB      85              0.0000000000
      9662        85  SAPS      HN3            30.5872268392       25.2214023553       22.4777244146  MEMB      85              0.0000000000
      9663        85  SAPS      C12            29.3477334620       26.1033809619       20.9850413623  MEMB      85              0.0000000000
      9664        85  SAPS      H12A           28.3115150915       25.9562425514       20.7185797447  MEMB      85              0.0000000000
      9665        85  SAPS      C13            29.3871486560       27.6025276965       21.4073601590  MEMB      85              0.0000000000
      9666        85  SAPS      O13A           29.8130899601       27.9414082822       22.5567435949  MEMB      85              0.0000000000
      9667        85  SAPS      O13B           29.5745230968       28.3667036918       20.4617776439  MEMB      85              0.0000000000
      9668        85  SAPS      C11            30.2786089679       25.9158260095       19.7249312182  MEMB      85              0.0000000000
      9669        85  SAPS      H11A           31.2751091705       26.1629847205       20.1494555949  MEMB      85              0.0000000000
      9670        85  SAPS      H11B           30.1513510841       26.5415779226       18.8157771840  MEMB      85              0.0000000000
      9671        85  SAPS      P              31.4356240706       23.8882690052       18.5706091610  MEMB      85              0.0000000000
      9672        85  SAPS      O13            32.7481963325       23.8438703280       19.2622088159  MEMB      85              0.0000000000
      9673        85  SAPS      O14            30.8925191470       22.6241924505       18.0879848000  MEMB      85              0.0000000000
      9674        85  SAPS      O12            30.2751580771       24.5454668670       19.3885806632  MEMB      85              0.0000000000
      9675        85  SAPS      O11            31.6039949318       24.8532232826       17.4003415750  MEMB      85              0.0000000000
      9676        85  SAPS      C1             32.4266251357       24.6603210943       16.2982105189  MEMB      85              0.0000000000
      9677        85  SAPS      HA             32.8909412037       25.6569091571       16.1383861735  MEMB      85              0.0000000000
      9678        85  SAPS      HB             33.1333132641       23.8430415737       16.5569906665  MEMB      85              0.0000000000
      9679        85  SAPS      C2             31.6406733008       24.4530994861       14.9269821736  MEMB      85              0.0000000000
      9680        85  SAPS      HS             31.2559172915       25.4045143755       14.5014312932  MEMB      85              0.0000000000
      9681        85  SAPS      O21            30.5484990778       23.5565478461       15.1355226131  MEMB      85              0.0000000000
      9682        85  SAPS      C21            29.3626866821       24.0924101129       15.4819840523  MEMB      85              0.0000000000
      9683        85  SAPS      O22            29.2629470239       25.2435590793       15.8874715744  MEMB      85              0.0000000000
      9684        85  SAPS      C22            28.2115220918       23.1095889457       15.3318728093  MEMB      85              0.0000000000
      9685        85  SAPS      H2R            28.6734775195       22.1248746538       15.5582704242  MEMB      85              0.0000000000
      9686        85  SAPS      H2S            27.4841073364       23.4456076773       16.1014704539  MEMB      85              0.0000000000
      9687        85  SAPS      C3             32.5149791788       23.8732264781       13.8292746743  MEMB      85              0.0000000000
      9688        85  SAPS      HX             32.7618045186       22.8067159839       14.0188895172  MEMB      85              0.0000000000
      9689        85  SAPS      HY             33.4483750039       24.4747309797       13.7934178524  MEMB      85              0.0000000000
      9690        85  SAPS      O31            31.7959961380       23.8188025678       12.5824429171  MEMB      85              0.0000000000
      9691        85  SAPS      C31            32.3616346770       23.0494407945       11.5994401604  MEMB      85              0.0000000000
      9692        85  SAPS      O32            33.4765061942       22.4904409538       11.6935120833  MEMB      85              0.0000000000
      9693        85  SAPS      C32            31.4269949998       22.8556138140       10.4374161606  MEMB      85              0.0000000000
      9694        85  SAPS      H2X            31.1756789015       21.7772518531       10.3463283316  MEMB      85              0.0000000000
      9695        85  SAPS      H2Y            31.8844824871       23.2546846857        9.5069501223  MEMB      85              0.0000000000
      9696        85  SAPS      C23            27.5155532085       23.3392157303       13.9839702091  MEMB      85              0.0000000000
      9697        85  SAPS      H3R            26.9500048805       22.4199154222       13.7206017666  MEMB      85              0.0000000000
      9698        85  SAPS      H3S            28.2657026856       23.4983754502       13.1800644105  MEMB      85              0.0000000000
      9699        85  SAPS      C24            26.5047990994       24.5442118800       13.9087066001  MEMB      85              0.0000000000
      9700        85  SAPS      H4R            27.1896358498       25.4165690697       13.9743777161  MEMB      85              0.0000000000
      9701        85  SAPS      H4S            25.8019054697       24.5511907084       14.7690632694  MEMB      85              0.0000000000
      9702        85  SAPS      C25            25.6609634791       24.5092905889       12.6292514240  MEMB      85              0.0000000000
      9703        85  SAPS      H5R            24.8291637792       23.7905301367       12.6678920293  MEMB      85              0.0000000000
      9704        85  SAPS      C26            25.8547507946       25.2311906364       11.4871170339  MEMB      85              0.0000000000
      9705        85  SAPS      H6R            25.1475158604       24.9815502069       10.6824444256  MEMB      85              0.0000000000
      9706        85  SAPS      C27            26.9572364032       26.2568092752       11.2106715077  MEMB      85              0.0000000000
      9707        85  SAPS      H7R            26.9809168203       26.6391043077       10.1677850844  MEMB      85              0.0000000000
      9708        85  SAPS      H7S            27.9221975820       25.7075707675       11.1718382195  MEMB      85              0.0000000000
      9709        85  SAPS      C28            27.3858386574       27.3694433337       12.1879867150  MEMB      85              0.0000000000
      9710        85  SAPS      H8R            26.7363055902       27.2870040015       13.0719046562  MEMB      85              0.0000000000
      9711        85  SAPS      C29            28.4289017112       28.2339406402       12.2906313344  MEMB      85              0.0000000000
      9712        85  SAPS      H9R            28.3589664359       29.0346819953       13.0415789635  MEMB      85              0.0000000000
      9713        85  SAPS      C210           29.6706626434       28.3250207261       11.3178254196  MEMB      85              0.0000000000
      9714        85  SAPS      H10R           30.1300498066       27.3186702353       11.2151458914  MEMB      85              0.0000000000
      9715        85  SAPS      H10S           30.4565560390       28.8047494009       11.9395590838  MEMB      85              0.0000000000
      9716        85  SAPS      C211           29.5081709322       29.1171723617       10.0551733493  MEMB      85              0.0000000000
      9717        85  SAPS      H11R           29.4868934134       30.2122095618       10.1573547462  MEMB      85              0.0000000000
      9718        85  SAPS      C212           29.5373042080       28.5664306370        8.7991827587  MEMB      85              0.0000000000
      9719        85  SAPS      H12R           29.5796000000       29.2719706238        7.9563160929  MEMB      85              0.0000000000
      9720        85  SAPS      C213           29.6805122181       27.0899441103        8.4165877501  MEMB      85              0.0000000000
      9721        85  SAPS      H13R           29.6897871106       26.5298255638        9.3760164084  MEMB      85              0.0000000000
      9722        85  SAPS      H13S           30.7331472176       27.0452674023        8.0640475089  MEMB      85              0.0000000000
      9723        85  SAPS      C214           28.6023836455       26.5487538974        7.5610113032  MEMB      85              0.0000000000
      9724        85  SAPS      H14R           27.8364454120       25.9797589845        8.1083531886  MEMB      85              0.0000000000
      9725        85  SAPS      C215           28.4470782685       26.7506026427        6.2840321128  MEMB      85              0.0000000000
      9726        85  SAPS      H15R           27.6533746858       26.1074761904        5.8760832138  MEMB      85              0.0000000000
      9727        85  SAPS      C216           29.2602423045       27.6352578999        5.3700693328  MEMB      85              0.0000000000
      9728        85  SAPS      H16R           30.2781410552       27.8390474470        5.7658882237  MEMB      85              0.0000000000
      9729        85  SAPS      H16S           28.8073200611       28.6276362915        5.1594334744  MEMB      85              0.0000000000
      9730        85  SAPS      C217           29.5281903162       27.0238319302        4.0470767811  MEMB      85              0.0000000000
      9731        85  SAPS      H17R           30.1432707142       27.7392042776        3.4603587705  MEMB      85              0.0000000000
      9732        85  SAPS      H17S           28.5933975276       26.8665850194        3.4676323695  MEMB      85              0.0000000000
      9733        85  SAPS      C218           30.4868644225       25.7721704711        4.2105315673  MEMB      85              0.0000000000
      9734        85  SAPS      H18R           29.8714481034       24.9967127810        4.7147626561  MEMB      85              0.0000000000
      9735        85  SAPS      H18S           31.2619076248       26.0752163382        4.9465971351  MEMB      85              0.0000000000
      9736        85  SAPS      C219           31.2818130209       25.3227380336        2.9001015772  MEMB      85              0.0000000000
      9737        85  SAPS      H19R           30.5878947921       24.7600289952        2.2396788695  MEMB      85              0.0000000000
      9738        85  SAPS      H19S           31.8727761179       24.5090259558        3.3722833027  MEMB      85              0.0000000000
      9739        85  SAPS      C220           32.0552523901       26.3697069177        2.2246481691  MEMB      85              0.0000000000
      9740        85  SAPS      H20R           31.4033346563       27.1765727971        1.8267886074  MEMB      85              0.0000000000
      9741        85  SAPS      H20S           32.7105643490       25.9936796162        1.4100995563  MEMB      85              0.0000000000
      9742        85  SAPS      H20T           32.7535876942       26.8468213168        2.9450731512  MEMB      85              0.0000000000
      9743        85  SAPS      C33            30.1492698404       23.6940335967       10.6324454960  MEMB      85              0.0000000000
      9744        85  SAPS      H3X            30.4262921967       24.7687360095       10.5815122976  MEMB      85              0.0000000000
      9745        85  SAPS      H3Y            29.5763310679       23.4256731425       11.5457065267  MEMB      85              0.0000000000
      9746        85  SAPS      C34            29.2880720958       23.5377743713        9.3567944443  MEMB      85              0.0000000000
      9747        85  SAPS      H4X            30.0456844751       23.6319023466        8.5496487568  MEMB      85              0.0000000000
      9748        85  SAPS      H4Y            28.5268488262       24.3450285467        9.3002179263  MEMB      85              0.0000000000
      9749        85  SAPS      C35            28.4660321883       22.2584364793        9.1602138029  MEMB      85              0.0000000000
      9750        85  SAPS      H5X            27.9570823986       22.0440292225       10.1242266975  MEMB      85              0.0000000000
      9751        85  SAPS      H5Y            29.0559890901       21.3230168367        9.0540914923  MEMB      85              0.0000000000
      9752        85  SAPS      C36            27.4939244863       22.3242564141        7.9630403571  MEMB      85              0.0000000000
      9753        85  SAPS      H6X            27.0371130174       23.3364432913        7.9295407136  MEMB      85              0.0000000000
      9754        85  SAPS      H6Y            26.6938912548       21.5783577926        8.1577260853  MEMB      85              0.0000000000
      9755        85  SAPS      C37            28.2505720709       22.0092312137        6.7045499957  MEMB      85              0.0000000000
      9756        85  SAPS      H7X            28.4139025332       20.9131497729        6.7836039720  MEMB      85              0.0000000000
      9757        85  SAPS      H7Y            29.2218708439       22.5485358482        6.6974671741  MEMB      85              0.0000000000
      9758        85  SAPS      C38            27.4896927494       22.4208086639        5.4154984883  MEMB      85              0.0000000000
      9759        85  SAPS      H8X            27.4767358159       23.5299919769        5.4776731170  MEMB      85              0.0000000000
      9760        85  SAPS      H8Y            26.4350128803       22.0860927294        5.5151811230  MEMB      85              0.0000000000
      9761        85  SAPS      C39            28.2583698731       21.8287876238        4.2285387146  MEMB      85              0.0000000000
      9762        85  SAPS      H9X            28.2869128448       20.7320483310        4.4036658716  MEMB      85              0.0000000000
      9763        85  SAPS      H9Y            29.2385804600       22.3504722263        4.2653253067  MEMB      85              0.0000000000
      9764        85  SAPS      C310           27.7176068443       22.1791947890        2.7666485808  MEMB      85              0.0000000000
      9765        85  SAPS      H10X           26.7788394225       21.5851619811        2.7539288516  MEMB      85              0.0000000000
      9766        85  SAPS      H10Y           28.3455779261       21.6817182489        1.9969152957  MEMB      85              0.0000000000
      9767        85  SAPS      C311           27.3491701934       23.6749474542        2.5208268298  MEMB      85              0.0000000000
      9768        85  SAPS      H11X           28.2295464901       24.3480976252        2.5991048315  MEMB      85              0.0000000000
      9769        85  SAPS      H11Y           26.6662340752       24.0587510678        3.3086169467  MEMB      85              0.0000000000
      9770        85  SAPS      C312           26.6270554568       23.9585076011        1.2289073303  MEMB      85              0.0000000000
      9771        85  SAPS      H12X           26.4485459651       25.0500197382        1.1237555871  MEMB      85              0.0000000000
      9772        85  SAPS      H12Y           25.6705963364       23.4196083019        1.3994780461  MEMB      85              0.0000000000
      9773        85  SAPS      C313           27.2398273175       23.4049167492        0.0218152074  MEMB      85              0.0000000000
      9774        85  SAPS      H13X           26.4702983817       23.3992632354       -0.7795051452  MEMB      85              0.0000000000
      9775        85  SAPS      H13Y           27.6764396854       22.3834478514        0.0389076803  MEMB      85              0.0000000000
      9776        85  SAPS      C314           28.2318508557       24.4122181645       -0.4458913556  MEMB      85              0.0000000000
      9777        85  SAPS      H14X           29.0763572023       24.3615333102        0.2742184626  MEMB      85              0.0000000000
      9778        85  SAPS      H14Y           27.8226149188       25.4437828992       -0.3937276673  MEMB      85              0.0000000000
      9779        85  SAPS      C315           28.8157579972       24.2854781868       -1.9080318715  MEMB      85              0.0000000000
      9780        85  SAPS      H15X           29.2469064685       25.2485776961       -2.2556974242  MEMB      85              0.0000000000
      9781        85  SAPS      H15Y           27.9543286293       24.1545468497       -2.5973199383  MEMB      85              0.0000000000
      9782        85  SAPS      C316           29.8334332635       23.1468931937       -2.1411716888  MEMB      85              0.0000000000
      9783        85  SAPS      H16X           30.4230346461       23.3885305674       -3.0512816664  MEMB      85              0.0000000000
      9784        85  SAPS      H16Y           29.2899936372       22.1852216013       -2.2602591770  MEMB      85              0.0000000000
      9785        85  SAPS      C317           30.8249010739       22.8816445689       -1.0151857189  MEMB      85              0.0000000000
      9786        85  SAPS      H17X           31.4846878391       22.0288615418       -1.2830725475  MEMB      85              0.0000000000
      9787        85  SAPS      H17Y           30.3261677194       22.6191740077       -0.0577437642  MEMB      85              0.0000000000
      9788        85  SAPS      C318           31.8832669535       23.9708020373       -0.8817155473  MEMB      85              0.0000000000
      9789        85  SAPS      H18X           32.7490743639       23.7132456741       -0.2349065014  MEMB      85              0.0000000000
      9790        85  SAPS      H18Y           31.4224320430       24.8456597888       -0.3751823581  MEMB      85              0.0000000000
      9791        85  SAPS      H18Z           32.2443828980       24.3400169806       -1.8653821987  MEMB      85              0.0000000000
      9792        86  SAPC      N              20.4264940490      -36.4547370074       20.9318380701  MEMB      86              0.0000000000
      9793        86  SAPC      C12            21.8057200306      -35.9772668179       21.1887897241  MEMB      86              0.0000000000
      9794        86  SAPC      H12A           22.4593468364      -36.8173025836       21.0057263636  MEMB      86              0.0000000000
      9795        86  SAPC      H12B           22.0381582878      -35.5883385119       22.1691503556  MEMB      86              0.0000000000
      9796        86  SAPC      C13            20.2658615472      -36.9581319901       19.5488917359  MEMB      86              0.0000000000
      9797        86  SAPC      H13A           20.1064110974      -36.0935364356       18.9216359256  MEMB      86              0.0000000000
      9798        86  SAPC      H13B           21.1240275648      -37.5419141899       19.2503124875  MEMB      86              0.0000000000
      9799        86  SAPC      H13C           19.4230605704      -37.6334724734       19.5474675499  MEMB      86              0.0000000000
      9800        86  SAPC      C14            20.2506680560      -37.5954707932       21.9019557518  MEMB      86              0.0000000000
      9801        86  SAPC      H14A           20.3326569340      -37.2272993950       22.9139476600  MEMB      86              0.0000000000
      9802        86  SAPC      H14B           19.3135098098      -38.1218988096       21.7970362277  MEMB      86              0.0000000000
      9803        86  SAPC      H14C           21.1343360021      -38.2159836361       21.8797232149  MEMB      86              0.0000000000
      9804        86  SAPC      C15            19.3778116799      -35.4373208435       21.1210727685  MEMB      86              0.0000000000
      9805        86  SAPC      H15A           18.4614365042      -35.9007066068       20.7865130688  MEMB      86              0.0000000000
      9806        86  SAPC      H15B           19.3045075937      -35.0129296274       22.1114861098  MEMB      86              0.0000000000
      9807        86  SAPC      H15C           19.4824277812      -34.6131408086       20.4310127890  MEMB      86              0.0000000000
      9808        86  SAPC      C11            22.1650138599      -34.8275325958       20.0852859344  MEMB      86              0.0000000000
      9809        86  SAPC      H11A           22.2706063177      -35.3460388264       19.1083916124  MEMB      86              0.0000000000
      9810        86  SAPC      H11B           23.2135887579      -34.5378371753       20.3108703499  MEMB      86              0.0000000000
      9811        86  SAPC      P              21.8070273366      -32.4550694529       19.0705784789  MEMB      86              0.0000000000
      9812        86  SAPC      O13            20.7247836397      -31.4173512405       19.1659424951  MEMB      86              0.0000000000
      9813        86  SAPC      O14            23.2126717101      -32.0196251971       19.2718809000  MEMB      86              0.0000000000
      9814        86  SAPC      O12            21.3445639436      -33.6998751995       19.9799433226  MEMB      86              0.0000000000
      9815        86  SAPC      O11            21.7450175341      -33.2078344568       17.7338208203  MEMB      86              0.0000000000
      9816        86  SAPC      C1             20.6028953099      -33.8878813524       17.2571803486  MEMB      86              0.0000000000
      9817        86  SAPC      HA             20.6869050070      -34.9768961461       17.4604295508  MEMB      86              0.0000000000
      9818        86  SAPC      HB             19.5920623730      -33.5219811349       17.5376350867  MEMB      86              0.0000000000
      9819        86  SAPC      C2             20.5926345731      -33.9616607735       15.6927313007  MEMB      86              0.0000000000
      9820        86  SAPC      HS             20.6343820536      -32.9427254293       15.2518811624  MEMB      86              0.0000000000
      9821        86  SAPC      O21            19.5331420999      -34.7470673291       15.2470194871  MEMB      86              0.0000000000
      9822        86  SAPC      C21            18.7464304265      -34.2548771712       14.2903899609  MEMB      86              0.0000000000
      9823        86  SAPC      O22            18.6556088445      -33.0758226356       13.9824064340  MEMB      86              0.0000000000
      9824        86  SAPC      C22            18.0447227182      -35.4276180617       13.5474760880  MEMB      86              0.0000000000
      9825        86  SAPC      H2R            18.8593899375      -36.1365387653       13.2865743140  MEMB      86              0.0000000000
      9826        86  SAPC      H2S            17.3666414881      -35.8597897482       14.3141272489  MEMB      86              0.0000000000
      9827        86  SAPC      C3             21.9000678895      -34.6398154853       15.1578380962  MEMB      86              0.0000000000
      9828        86  SAPC      HX             22.7565301288      -34.0661587986       15.5722186815  MEMB      86              0.0000000000
      9829        86  SAPC      HY             21.9245354364      -34.4589803703       14.0619268460  MEMB      86              0.0000000000
      9830        86  SAPC      O31            21.9522619898      -36.0752974818       15.3750346940  MEMB      86              0.0000000000
      9831        86  SAPC      C31            21.7328004371      -36.8813028473       14.3253557004  MEMB      86              0.0000000000
      9832        86  SAPC      O32            21.2940886345      -36.5712450389       13.2336808416  MEMB      86              0.0000000000
      9833        86  SAPC      C32            22.2459239847      -38.3566501482       14.6467101721  MEMB      86              0.0000000000
      9834        86  SAPC      H2X            21.7271733455      -38.6122064402       15.5953459689  MEMB      86              0.0000000000
      9835        86  SAPC      H2Y            23.3490979444      -38.3628375642       14.7782008633  MEMB      86              0.0000000000
      9836        86  SAPC      C23            17.1364322038      -35.0854716924       12.3908995842  MEMB      86              0.0000000000
      9837        86  SAPC      H3R            16.4688558535      -34.2093788160       12.5362402935  MEMB      86              0.0000000000
      9838        86  SAPC      H3S            16.5196302718      -35.9854941810       12.1815306575  MEMB      86              0.0000000000
      9839        86  SAPC      C24            17.9666256043      -34.8266660827       11.1697062892  MEMB      86              0.0000000000
      9840        86  SAPC      H4R            18.4726756817      -35.7613757983       10.8463612866  MEMB      86              0.0000000000
      9841        86  SAPC      H4S            18.6428858554      -33.9690452920       11.3733719115  MEMB      86              0.0000000000
      9842        86  SAPC      C25            17.0420997333      -34.2495083165       10.0644599870  MEMB      86              0.0000000000
      9843        86  SAPC      H5R            16.0564562173      -34.7131680434        9.9110768023  MEMB      86              0.0000000000
      9844        86  SAPC      C26            17.4280405728      -33.2687415460        9.2267217458  MEMB      86              0.0000000000
      9845        86  SAPC      H6R            16.7006821633      -32.9156856232        8.4808657648  MEMB      86              0.0000000000
      9846        86  SAPC      C27            18.6787963429      -32.4409404214        9.0872318270  MEMB      86              0.0000000000
      9847        86  SAPC      H7R            18.6476833516      -31.7915846238        8.1862931092  MEMB      86              0.0000000000
      9848        86  SAPC      H7S            19.6119309200      -33.0418826626        9.0377435036  MEMB      86              0.0000000000
      9849        86  SAPC      C28            18.7726582215      -31.6033628106       10.3399622967  MEMB      86              0.0000000000
      9850        86  SAPC      H8R            17.7916148285      -31.2259971276       10.6642288171  MEMB      86              0.0000000000
      9851        86  SAPC      C29            19.8438482328      -31.3064493849       11.1157874649  MEMB      86              0.0000000000
      9852        86  SAPC      H9R            19.6112080861      -30.6926824703       11.9984929558  MEMB      86              0.0000000000
      9853        86  SAPC      C210           21.3092975325      -31.6843222547       10.9766262998  MEMB      86              0.0000000000
      9854        86  SAPC      H10R           21.7858533097      -31.4277821455       11.9468854470  MEMB      86              0.0000000000
      9855        86  SAPC      H10S           21.8091545395      -31.0348999282       10.2264835037  MEMB      86              0.0000000000
      9856        86  SAPC      C211           21.7585749709      -33.0498257024       10.6184681969  MEMB      86              0.0000000000
      9857        86  SAPC      H11R           21.8010415083      -33.7587366563       11.4584931135  MEMB      86              0.0000000000
      9858        86  SAPC      C212           22.1616623528      -33.5615406081        9.4424336667  MEMB      86              0.0000000000
      9859        86  SAPC      H12R           22.7358004669      -34.4988496263        9.3998026287  MEMB      86              0.0000000000
      9860        86  SAPC      C213           22.2205102722      -32.7878880593        8.1433416344  MEMB      86              0.0000000000
      9861        86  SAPC      H13R           22.8211067415      -31.8853675160        8.3863689365  MEMB      86              0.0000000000
      9862        86  SAPC      H13S           21.2211846765      -32.4082348934        7.8407982926  MEMB      86              0.0000000000
      9863        86  SAPC      C214           22.8672410359      -33.4484965219        6.9225742926  MEMB      86              0.0000000000
      9864        86  SAPC      H14R           23.4605085744      -34.3477096816        7.1449461999  MEMB      86              0.0000000000
      9865        86  SAPC      C215           22.6737018319      -33.1685322949        5.6305229184  MEMB      86              0.0000000000
      9866        86  SAPC      H15R           23.2927358461      -33.6482052537        4.8580521995  MEMB      86              0.0000000000
      9867        86  SAPC      C216           21.6919603121      -32.0400482372        5.0392501300  MEMB      86              0.0000000000
      9868        86  SAPC      H16R           22.2429019522      -31.5184025212        4.2276653987  MEMB      86              0.0000000000
      9869        86  SAPC      H16S           21.3874383113      -31.2235837142        5.7284330894  MEMB      86              0.0000000000
      9870        86  SAPC      C217           20.3889644101      -32.7038589439        4.4244957854  MEMB      86              0.0000000000
      9871        86  SAPC      H17R           19.7315308336      -33.1514292239        5.2002424925  MEMB      86              0.0000000000
      9872        86  SAPC      H17S           20.6694172075      -33.4512606546        3.6518005342  MEMB      86              0.0000000000
      9873        86  SAPC      C218           19.4976758120      -31.7135866911        3.5991216113  MEMB      86              0.0000000000
      9874        86  SAPC      H18R           20.0338907464      -31.4218043272        2.6708657261  MEMB      86              0.0000000000
      9875        86  SAPC      H18S           19.3062653304      -30.7274981342        4.0737926362  MEMB      86              0.0000000000
      9876        86  SAPC      C219           18.2045069789      -32.3607080967        3.0420023281  MEMB      86              0.0000000000
      9877        86  SAPC      H19R           17.5641805933      -31.5154804519        2.7104995494  MEMB      86              0.0000000000
      9878        86  SAPC      H19S           17.7691534333      -32.8081254796        3.9610258747  MEMB      86              0.0000000000
      9879        86  SAPC      C220           18.3045424633      -33.3884774986        2.0047771531  MEMB      86              0.0000000000
      9880        86  SAPC      H20R           18.9657342357      -33.0627367649        1.1734904738  MEMB      86              0.0000000000
      9881        86  SAPC      H20S           17.3286888488      -33.6673111573        1.5528017295  MEMB      86              0.0000000000
      9882        86  SAPC      H20T           18.6157263461      -34.2889953216        2.5762264200  MEMB      86              0.0000000000
      9883        86  SAPC      C33            21.9935606894      -39.3157394935       13.4730866854  MEMB      86              0.0000000000
      9884        86  SAPC      H3X            20.9584296730      -39.2100047235       13.0836701947  MEMB      86              0.0000000000
      9885        86  SAPC      H3Y            22.1569293440      -40.3489211803       13.8474748214  MEMB      86              0.0000000000
      9886        86  SAPC      C34            23.0724105719      -39.1576615412       12.3192862613  MEMB      86              0.0000000000
      9887        86  SAPC      H4X            24.0296776839      -39.5621831067       12.7121264254  MEMB      86              0.0000000000
      9888        86  SAPC      H4Y            23.2249692184      -38.0663753974       12.1773661014  MEMB      86              0.0000000000
      9889        86  SAPC      C35            22.4889520040      -39.7745580869       11.0094724086  MEMB      86              0.0000000000
      9890        86  SAPC      H5X            21.5286960250      -39.3391699482       10.6592346195  MEMB      86              0.0000000000
      9891        86  SAPC      H5Y            22.2022762002      -40.8414661429       11.1271374198  MEMB      86              0.0000000000
      9892        86  SAPC      C36            23.3983656454      -39.6552426385        9.7332523002  MEMB      86              0.0000000000
      9893        86  SAPC      H6X            22.7219140967      -40.0521290503        8.9463501609  MEMB      86              0.0000000000
      9894        86  SAPC      H6Y            24.3065462128      -40.2917405655        9.6669250221  MEMB      86              0.0000000000
      9895        86  SAPC      C37            23.8955565701      -38.2750346418        9.4277598360  MEMB      86              0.0000000000
      9896        86  SAPC      H7X            24.6032895193      -37.9436695022       10.2174635763  MEMB      86              0.0000000000
      9897        86  SAPC      H7Y            23.0501022151      -37.5602136314        9.3352462406  MEMB      86              0.0000000000
      9898        86  SAPC      C38            24.6581104325      -38.1467497206        8.0633442486  MEMB      86              0.0000000000
      9899        86  SAPC      H8X            25.4471110423      -38.9194862665        7.9421965825  MEMB      86              0.0000000000
      9900        86  SAPC      H8Y            25.2043773828      -37.1813774223        8.0003398479  MEMB      86              0.0000000000
      9901        86  SAPC      C39            23.7640040204      -38.4327757480        6.8275826978  MEMB      86              0.0000000000
      9902        86  SAPC      H9X            23.4658504098      -39.5019865880        6.8746263224  MEMB      86              0.0000000000
      9903        86  SAPC      H9Y            24.2840581927      -38.2921775402        5.8559363905  MEMB      86              0.0000000000
      9904        86  SAPC      C310           22.4644478435      -37.5103397214        6.7392112822  MEMB      86              0.0000000000
      9905        86  SAPC      H10X           22.7504121278      -36.4848564776        7.0569047934  MEMB      86              0.0000000000
      9906        86  SAPC      H10Y           21.7446898246      -37.8109640597        7.5303457128  MEMB      86              0.0000000000
      9907        86  SAPC      C311           21.7265665061      -37.7046671449        5.4053325374  MEMB      86              0.0000000000
      9908        86  SAPC      H11X           20.7962723798      -37.1448453568        5.6408607569  MEMB      86              0.0000000000
      9909        86  SAPC      H11Y           21.6071289087      -38.7740907535        5.1289478673  MEMB      86              0.0000000000
      9910        86  SAPC      C312           22.4220104963      -37.0434045124        4.1821878849  MEMB      86              0.0000000000
      9911        86  SAPC      H12X           23.3445154614      -37.6622390451        4.1634998605  MEMB      86              0.0000000000
      9912        86  SAPC      H12Y           22.7084244590      -35.9933499500        4.4050627465  MEMB      86              0.0000000000
      9913        86  SAPC      C313           21.5155194906      -37.0681833702        2.9029873056  MEMB      86              0.0000000000
      9914        86  SAPC      H13X           20.7391704352      -36.2912556747        3.0702785825  MEMB      86              0.0000000000
      9915        86  SAPC      H13Y           20.8850206148      -37.9671957918        2.7339621535  MEMB      86              0.0000000000
      9916        86  SAPC      C314           22.3920065672      -36.7046326105        1.6727863630  MEMB      86              0.0000000000
      9917        86  SAPC      H14X           23.3885932350      -37.1927738647        1.7262140403  MEMB      86              0.0000000000
      9918        86  SAPC      H14Y           22.5696259692      -35.6253938313        1.8677662444  MEMB      86              0.0000000000
      9919        86  SAPC      C315           21.6548867193      -37.0794998691        0.3270269543  MEMB      86              0.0000000000
      9920        86  SAPC      H15X           20.5879523428      -36.8381647665        0.5212680001  MEMB      86              0.0000000000
      9921        86  SAPC      H15Y           21.7550704837      -38.1831952652        0.2486671573  MEMB      86              0.0000000000
      9922        86  SAPC      C316           22.0987286379      -36.3342650664       -1.0395429590  MEMB      86              0.0000000000
      9923        86  SAPC      H16X           21.4368495211      -36.6795206486       -1.8623657473  MEMB      86              0.0000000000
      9924        86  SAPC      H16Y           23.1663310334      -36.5676875491       -1.2396940786  MEMB      86              0.0000000000
      9925        86  SAPC      C317           21.9536281993      -34.7736556968       -0.8074488592  MEMB      86              0.0000000000
      9926        86  SAPC      H17X           22.6506434115      -34.4589198567       -0.0015759486  MEMB      86              0.0000000000
      9927        86  SAPC      H17Y           20.9641278657      -34.6103647195       -0.3293836083  MEMB      86              0.0000000000
      9928        86  SAPC      C318           22.1158849883      -33.9177371756       -2.0708442502  MEMB      86              0.0000000000
      9929        86  SAPC      H18X           23.2029143302      -33.8605434674       -2.2931454222  MEMB      86              0.0000000000
      9930        86  SAPC      H18Y           21.8328828700      -32.8680748676       -1.8418473632  MEMB      86              0.0000000000
      9931        86  SAPC      H18Z           21.5457445731      -34.3358155135       -2.9278575135  MEMB      86              0.0000000000
      9932        87  CHL1      C3             25.4081016773       32.3031515521       17.3433750000  MEMB      87              0.0000000000
      9933        87  CHL1      H3             24.3342493293       32.5776324766       17.4197650000  MEMB      87              0.0000000000
      9934        87  CHL1      O3             26.0115949227       32.0664706479       18.6566250000  MEMB      87              0.0000000000
      9935        87  CHL1      H3'            25.4945124447       32.5912732102       19.2720950000  MEMB      87              0.0000000000
      9936        87  CHL1      C4             25.5071163685       31.0264129270       16.4444550000  MEMB      87              0.0000000000
      9937        87  CHL1      H4A            26.5053061682       30.5923129758       16.6669550000  MEMB      87              0.0000000000
      9938        87  CHL1      H4B            24.7606708028       30.3470445236       16.9087750000  MEMB      87              0.0000000000
      9939        87  CHL1      C5             25.1075666280       31.2352189657       15.0133450000  MEMB      87              0.0000000000
      9940        87  CHL1      C6             24.1852433671       30.5261597330       14.4064650000  MEMB      87              0.0000000000
      9941        87  CHL1      H6             23.6150931067       29.8189559685       15.0267850000  MEMB      87              0.0000000000
      9942        87  CHL1      C7             23.7141980969       30.7208870025       12.9741750000  MEMB      87              0.0000000000
      9943        87  CHL1      H7A            23.5428629182       29.7552776522       12.4521050000  MEMB      87              0.0000000000
      9944        87  CHL1      H7B            22.8269600308       31.3848119053       12.8946450000  MEMB      87              0.0000000000
      9945        87  CHL1      C8             24.8086527961       31.4530540896       12.1198550000  MEMB      87              0.0000000000
      9946        87  CHL1      H8             25.7362046290       30.8439908073       12.0650250000  MEMB      87              0.0000000000
      9947        87  CHL1      C14            24.2509774558       31.8050790685       10.7547250000  MEMB      87              0.0000000000
      9948        87  CHL1      H14            23.4076833832       32.5188972969       10.8715350000  MEMB      87              0.0000000000
      9949        87  CHL1      C15            23.6206550752       30.7010275593        9.9045550000  MEMB      87              0.0000000000
      9950        87  CHL1      H15A           24.1971426838       29.7518206401        9.8729550000  MEMB      87              0.0000000000
      9951        87  CHL1      H15B           22.6079523266       30.5356532360       10.3304650000  MEMB      87              0.0000000000
      9952        87  CHL1      C16            23.4701646049       31.3601343223        8.4893850000  MEMB      87              0.0000000000
      9953        87  CHL1      H16A           23.8863553641       30.7944279267        7.6285250000  MEMB      87              0.0000000000
      9954        87  CHL1      H16B           22.4023593258       31.5560229579        8.2533250000  MEMB      87              0.0000000000
      9955        87  CHL1      C17            24.2503239784       32.6932439616        8.6013050000  MEMB      87              0.0000000000
      9956        87  CHL1      H17            23.5325156011       33.5262479319        8.7599750000  MEMB      87              0.0000000000
      9957        87  CHL1      C13            25.1800130458       32.5386752456        9.8072150000  MEMB      87              0.0000000000
      9958        87  CHL1      C18            26.4311251667       31.7359220086        9.4131450000  MEMB      87              0.0000000000
      9959        87  CHL1      H18A           27.1966956340       32.3090335612        8.8476750000  MEMB      87              0.0000000000
      9960        87  CHL1      H18B           27.0533753082       31.3064900841       10.2272250000  MEMB      87              0.0000000000
      9961        87  CHL1      H18C           26.2329731742       30.9362182055        8.6678050000  MEMB      87              0.0000000000
      9962        87  CHL1      C12            25.5318217902       33.8227705501       10.5801450000  MEMB      87              0.0000000000
      9963        87  CHL1      H12A           26.1244809174       34.4525280240        9.8826650000  MEMB      87              0.0000000000
      9964        87  CHL1      H12B           24.6140225911       34.4156372236       10.7813450000  MEMB      87              0.0000000000
      9965        87  CHL1      C11            26.1895613028       33.6152034056       11.9848150000  MEMB      87              0.0000000000
      9966        87  CHL1      H11A           27.1984202300       33.1634741772       11.8731250000  MEMB      87              0.0000000000
      9967        87  CHL1      H11B           26.3690472642       34.5567310110       12.5466150000  MEMB      87              0.0000000000
      9968        87  CHL1      C9             25.2506147999       32.7039936460       12.8750750000  MEMB      87              0.0000000000
      9969        87  CHL1      H9             24.3494044773       33.3192216696       13.0839550000  MEMB      87              0.0000000000
      9970        87  CHL1      C10            25.8687755676       32.3752134851       14.2776150000  MEMB      87              0.0000000000
      9971        87  CHL1      C19            27.3834463124       31.9849858477       14.1160650000  MEMB      87              0.0000000000
      9972        87  CHL1      H19A           27.4993693808       31.2130679871       13.3254850000  MEMB      87              0.0000000000
      9973        87  CHL1      H19B           27.9201267089       32.9413530229       13.9381650000  MEMB      87              0.0000000000
      9974        87  CHL1      H19C           27.8128388165       31.5184908987       15.0283750000  MEMB      87              0.0000000000
      9975        87  CHL1      C1             25.6956929906       33.6574632539       15.2513350000  MEMB      87              0.0000000000
      9976        87  CHL1      H1A            26.4545829975       34.4412252067       15.0412850000  MEMB      87              0.0000000000
      9977        87  CHL1      H1B            24.6576134372       34.0479787256       15.3162150000  MEMB      87              0.0000000000
      9978        87  CHL1      C2             26.1551179861       33.4220169984       16.7263850000  MEMB      87              0.0000000000
      9979        87  CHL1      H2A            25.9307932316       34.3496052895       17.2952150000  MEMB      87              0.0000000000
      9980        87  CHL1      H2B            27.2381061181       33.1812204806       16.6674550000  MEMB      87              0.0000000000
      9981        87  CHL1      C20            24.8964956449       33.1852965964        7.2110550000  MEMB      87              0.0000000000
      9982        87  CHL1      H20            25.5999718461       32.3846115112        6.8974450000  MEMB      87              0.0000000000
      9983        87  CHL1      C21            25.6707607220       34.5085621680        7.1582850000  MEMB      87              0.0000000000
      9984        87  CHL1      H21A           25.8241259193       34.7986289514        6.0968450000  MEMB      87              0.0000000000
      9985        87  CHL1      H21B           26.6832925804       34.4207816184        7.6070550000  MEMB      87              0.0000000000
      9986        87  CHL1      H21C           25.0045331604       35.2412476074        7.6618950000  MEMB      87              0.0000000000
      9987        87  CHL1      C22            23.8089468898       33.2304354468        6.1059650000  MEMB      87              0.0000000000
      9988        87  CHL1      H22A           23.3051348256       32.2428744705        6.1781350000  MEMB      87              0.0000000000
      9989        87  CHL1      H22B           23.0325365711       33.9680733132        6.4016050000  MEMB      87              0.0000000000
      9990        87  CHL1      C23            24.2811360536       33.4186614283        4.6286950000  MEMB      87              0.0000000000
      9991        87  CHL1      H23A           24.7252893012       34.4096810306        4.3943150000  MEMB      87              0.0000000000
      9992        87  CHL1      H23B           25.1146485246       32.6980370358        4.4862850000  MEMB      87              0.0000000000
      9993        87  CHL1      C24            23.1615376890       32.8812129944        3.7786650000  MEMB      87              0.0000000000
      9994        87  CHL1      H24A           22.7331919916       31.9646790247        4.2378050000  MEMB      87              0.0000000000
      9995        87  CHL1      H24B           22.3325070211       33.6208274355        3.7803650000  MEMB      87              0.0000000000
      9996        87  CHL1      C25            23.6198678840       32.5894750174        2.3786150000  MEMB      87              0.0000000000
      9997        87  CHL1      H25            24.2884598896       31.7154662382        2.5316550000  MEMB      87              0.0000000000
      9998        87  CHL1      C26            22.5912259985       32.1717397938        1.4115650000  MEMB      87              0.0000000000
      9999        87  CHL1      H26A           22.1303126398       31.2068516108        1.7129950000  MEMB      87              0.0000000000
     10000        87  CHL1      H26B           21.7864568071       32.9171825842        1.2355150000  MEMB      87              0.0000000000
     10001        87  CHL1      H26C           23.0545602135       32.0357379474        0.4109950000  MEMB      87              0.0000000000
     10002        87  CHL1      C27            24.4839052831       33.7948490321        1.6647150000  MEMB      87              0.0000000000
     10003        87  CHL1      H27A           23.8242579131       34.6740159501        1.8267250000  MEMB      87              0.0000000000
     10004        87  CHL1      H27B           25.5036512991       33.8321806259        2.1040850000  MEMB      87              0.0000000000
     10005        87  CHL1      H27C           24.6390098193       33.7198285705        0.5671550000  MEMB      87              0.0000000000
     10006        88  SLPC      N              30.9358889879      -25.0733425940       15.4274689036  MEMB      88              0.0000000000
     10007        88  SLPC      C13            32.1373189112      -25.1394311319       14.5252831017  MEMB      88              0.0000000000
     10008        88  SLPC      H13A           32.5377758735      -24.1375325366       14.5725398773  MEMB      88              0.0000000000
     10009        88  SLPC      H13B           32.8435249119      -25.9327837547       14.7208970828  MEMB      88              0.0000000000
     10010        88  SLPC      H13C           31.8052306797      -25.4438223800       13.5437214594  MEMB      88              0.0000000000
     10011        88  SLPC      C14            30.3896485888      -26.4469417746       15.7674795926  MEMB      88              0.0000000000
     10012        88  SLPC      H14A           30.0378182602      -26.9923588010       14.9042672084  MEMB      88              0.0000000000
     10013        88  SLPC      H14B           31.1478734307      -26.9681879615       16.3329860800  MEMB      88              0.0000000000
     10014        88  SLPC      H14C           29.5042926984      -26.3813515964       16.3824939578  MEMB      88              0.0000000000
     10015        88  SLPC      C15            29.8798139957      -24.3800509381       14.6941105936  MEMB      88              0.0000000000
     10016        88  SLPC      H15A           29.0420484855      -24.5587295125       15.3518513949  MEMB      88              0.0000000000
     10017        88  SLPC      H15B           30.0672295895      -23.3164959464       14.6828625712  MEMB      88              0.0000000000
     10018        88  SLPC      H15C           29.6878524232      -24.7222576374       13.6879072655  MEMB      88              0.0000000000
     10019        88  SLPC      C12            31.3246322524      -24.3261500039       16.6876468670  MEMB      88              0.0000000000
     10020        88  SLPC      H12A           30.3648630493      -24.0074647807       17.0667016308  MEMB      88              0.0000000000
     10021        88  SLPC      H12B           31.8294094894      -23.4029481111       16.4441350313  MEMB      88              0.0000000000
     10022        88  SLPC      C11            32.0774898779      -25.0789781369       17.8000294608  MEMB      88              0.0000000000
     10023        88  SLPC      H11A           31.2240191320      -25.5477042088       18.3350104259  MEMB      88              0.0000000000
     10024        88  SLPC      H11B           32.5580018071      -24.3289957416       18.4640744654  MEMB      88              0.0000000000
     10025        88  SLPC      P              33.2715400317      -27.3642637331       18.5105697407  MEMB      88              0.0000000000
     10026        88  SLPC      O13            33.9607224067      -26.8978136242       19.7125884073  MEMB      88              0.0000000000
     10027        88  SLPC      O14            32.0377543676      -28.0394440314       18.7452403624  MEMB      88              0.0000000000
     10028        88  SLPC      O12            33.0809166296      -26.0753086361       17.4448433355  MEMB      88              0.0000000000
     10029        88  SLPC      O11            34.2037655472      -28.2786603629       17.6847396299  MEMB      88              0.0000000000
     10030        88  SLPC      C1             33.5809861969      -29.0186697012       16.6320424342  MEMB      88              0.0000000000
     10031        88  SLPC      HA             33.1818555465      -29.9629370553       17.0602653141  MEMB      88              0.0000000000
     10032        88  SLPC      HB             32.7701023082      -28.4834950156       16.0931763938  MEMB      88              0.0000000000
     10033        88  SLPC      C2             34.6932444249      -29.3083675640       15.5370016321  MEMB      88              0.0000000000
     10034        88  SLPC      HS             35.6669787393      -29.6530650183       15.9460816835  MEMB      88              0.0000000000
     10035        88  SLPC      O21            34.9321628374      -28.0876393382       14.7800398634  MEMB      88              0.0000000000
     10036        88  SLPC      C21            36.1588869922      -27.8829542136       14.2891620205  MEMB      88              0.0000000000
     10037        88  SLPC      O22            37.0762678403      -28.6944683555       14.2541140657  MEMB      88              0.0000000000
     10038        88  SLPC      C22            36.0100521384      -26.6027441795       13.4609427842  MEMB      88              0.0000000000
     10039        88  SLPC      H2R            35.3872001208      -26.8039990567       12.5632383045  MEMB      88              0.0000000000
     10040        88  SLPC      H2S            35.5847104624      -25.8291704702       14.1354716783  MEMB      88              0.0000000000
     10041        88  SLPC      C3             34.2012264992      -30.3130847643       14.5648226375  MEMB      88              0.0000000000
     10042        88  SLPC      HX             34.1746001043      -31.2736754035       15.1223864043  MEMB      88              0.0000000000
     10043        88  SLPC      HY             34.8806145677      -30.4690520130       13.6997058723  MEMB      88              0.0000000000
     10044        88  SLPC      O31            32.8618368846      -30.1564253347       14.1795878925  MEMB      88              0.0000000000
     10045        88  SLPC      C31            32.5264079869      -30.3555460898       12.9238180314  MEMB      88              0.0000000000
     10046        88  SLPC      O32            33.2110600604      -30.7556872425       11.9400453389  MEMB      88              0.0000000000
     10047        88  SLPC      C32            30.9985004023      -30.2788445423       12.8776783429  MEMB      88              0.0000000000
     10048        88  SLPC      H2X            30.5721774125      -30.5159908913       13.8758424135  MEMB      88              0.0000000000
     10049        88  SLPC      H2Y            30.7054215161      -30.9927822674       12.0784798371  MEMB      88              0.0000000000
     10050        88  SLPC      C23            37.3748866359      -26.0537072262       12.9149541304  MEMB      88              0.0000000000
     10051        88  SLPC      H3R            38.0037563246      -26.8043332871       12.3901639333  MEMB      88              0.0000000000
     10052        88  SLPC      H3S            37.8423962712      -25.7726494809       13.8828189863  MEMB      88              0.0000000000
     10053        88  SLPC      C24            37.4265239857      -24.8451762690       11.9712288924  MEMB      88              0.0000000000
     10054        88  SLPC      H4R            38.4054612371      -24.7918801770       11.4485800086  MEMB      88              0.0000000000
     10055        88  SLPC      H4S            37.3476788595      -23.9636770595       12.6428412405  MEMB      88              0.0000000000
     10056        88  SLPC      C25            36.2514420752      -24.5549023534       10.9689591816  MEMB      88              0.0000000000
     10057        88  SLPC      H5R            36.3946071085      -23.4772729192       10.7397444822  MEMB      88              0.0000000000
     10058        88  SLPC      H5S            35.2564491416      -24.6522958380       11.4535460489  MEMB      88              0.0000000000
     10059        88  SLPC      C26            36.4066771674      -25.2630234184        9.5762755495  MEMB      88              0.0000000000
     10060        88  SLPC      H6R            37.4648084720      -25.3590657862        9.2515367857  MEMB      88              0.0000000000
     10061        88  SLPC      H6S            35.8007700035      -24.6386505003        8.8853659523  MEMB      88              0.0000000000
     10062        88  SLPC      C27            35.7923580879      -26.6765692171        9.5091757883  MEMB      88              0.0000000000
     10063        88  SLPC      H7R            36.2438558935      -27.1404751189       10.4120944698  MEMB      88              0.0000000000
     10064        88  SLPC      H7S            36.1966020695      -27.2443517897        8.6439988676  MEMB      88              0.0000000000
     10065        88  SLPC      C28            34.2706541015      -26.7411431647        9.6393498104  MEMB      88              0.0000000000
     10066        88  SLPC      H8R            33.8020139162      -26.2859967465        8.7407174700  MEMB      88              0.0000000000
     10067        88  SLPC      H8S            34.0768231943      -26.0234263063       10.4649602079  MEMB      88              0.0000000000
     10068        88  SLPC      C29            33.8188607211      -28.1188968867        9.7819887658  MEMB      88              0.0000000000
     10069        88  SLPC      H9R            33.5073497410      -28.3428159369       10.8129211381  MEMB      88              0.0000000000
     10070        88  SLPC      C210           33.5572716540      -28.9925862457        8.7486505145  MEMB      88              0.0000000000
     10071        88  SLPC      H10R           33.3674870480      -30.0353457646        9.0429870288  MEMB      88              0.0000000000
     10072        88  SLPC      C211           33.7392423776      -28.8105827248        7.3239726709  MEMB      88              0.0000000000
     10073        88  SLPC      H11R           34.2374180845      -27.8372411420        7.1271270189  MEMB      88              0.0000000000
     10074        88  SLPC      H11S           32.7521364805      -28.7962003977        6.8143292531  MEMB      88              0.0000000000
     10075        88  SLPC      C212           34.7428442816      -29.7843034157        6.7615898546  MEMB      88              0.0000000000
     10076        88  SLPC      H12R           35.4726967325      -30.1619730686        7.4928086284  MEMB      88              0.0000000000
     10077        88  SLPC      C213           34.8200141230      -30.2149966255        5.4847022305  MEMB      88              0.0000000000
     10078        88  SLPC      H13R           35.6254502937      -30.9495452669        5.3373550694  MEMB      88              0.0000000000
     10079        88  SLPC      C214           33.9569018991      -29.8612294333        4.2131820140  MEMB      88              0.0000000000
     10080        88  SLPC      H14R           33.0272020125      -29.3228808706        4.4963079570  MEMB      88              0.0000000000
     10081        88  SLPC      H14S           33.6297068023      -30.7249758122        3.5957630907  MEMB      88              0.0000000000
     10082        88  SLPC      C215           34.7199133539      -28.8228079299        3.3197893620  MEMB      88              0.0000000000
     10083        88  SLPC      H15R           35.0961411588      -28.0374553932        4.0097140194  MEMB      88              0.0000000000
     10084        88  SLPC      H15S           34.0421430421      -28.4328674995        2.5305530939  MEMB      88              0.0000000000
     10085        88  SLPC      C216           35.8926158695      -29.2944418662        2.5311204921  MEMB      88              0.0000000000
     10086        88  SLPC      H16R           35.6894167143      -30.3167105920        2.1464154037  MEMB      88              0.0000000000
     10087        88  SLPC      H16S           36.7781134831      -29.4123603472        3.1916575577  MEMB      88              0.0000000000
     10088        88  SLPC      C217           36.2943036196      -28.4222957764        1.3475896450  MEMB      88              0.0000000000
     10089        88  SLPC      H17R           35.3508911970      -28.3184835272        0.7700800283  MEMB      88              0.0000000000
     10090        88  SLPC      H17S           37.0048723012      -29.0403888554        0.7582048556  MEMB      88              0.0000000000
     10091        88  SLPC      C218           37.0539001728      -27.0930000427        1.6017237166  MEMB      88              0.0000000000
     10092        88  SLPC      H18R           37.6445630104      -27.0956489719        2.5426972272  MEMB      88              0.0000000000
     10093        88  SLPC      H18S           36.3507960141      -26.2328948182        1.6153041586  MEMB      88              0.0000000000
     10094        88  SLPC      H18T           37.7872936498      -26.8913834445        0.7919047830  MEMB      88              0.0000000000
     10095        88  SLPC      C33            30.4972500392      -28.8569086217       12.4360060631  MEMB      88              0.0000000000
     10096        88  SLPC      H3X            31.0175827873      -28.5661022718       11.4984522790  MEMB      88              0.0000000000
     10097        88  SLPC      H3Y            30.7812431657      -28.1011065641       13.1991783895  MEMB      88              0.0000000000
     10098        88  SLPC      C34            28.9642035703      -28.7650490028       12.4650403891  MEMB      88              0.0000000000
     10099        88  SLPC      H4X            28.5578032920      -28.9751105068       13.4774798423  MEMB      88              0.0000000000
     10100        88  SLPC      H4Y            28.5562883799      -29.5496948531       11.7925398014  MEMB      88              0.0000000000
     10101        88  SLPC      C35            28.3029100744      -27.4150941605       12.0495220829  MEMB      88              0.0000000000
     10102        88  SLPC      H5X            28.9178254216      -26.5424241618       12.3571702201  MEMB      88              0.0000000000
     10103        88  SLPC      H5Y            27.3221556160      -27.3950803934       12.5710973248  MEMB      88              0.0000000000
     10104        88  SLPC      C36            27.9121236673      -27.2653532273       10.5268901128  MEMB      88              0.0000000000
     10105        88  SLPC      H6X            27.4783196279      -26.2524504222       10.3848945915  MEMB      88              0.0000000000
     10106        88  SLPC      H6Y            27.2499254815      -28.0661767211       10.1338295365  MEMB      88              0.0000000000
     10107        88  SLPC      C37            29.0703701543      -27.2933782150        9.5630501137  MEMB      88              0.0000000000
     10108        88  SLPC      H7X            29.4066112519      -28.3376930752        9.7381766925  MEMB      88              0.0000000000
     10109        88  SLPC      H7Y            29.9135712047      -26.6210793471        9.8301594218  MEMB      88              0.0000000000
     10110        88  SLPC      C38            28.6962554082      -26.8963053028        8.1451413051  MEMB      88              0.0000000000
     10111        88  SLPC      H8X            28.1922252523      -25.9100169189        8.0584833495  MEMB      88              0.0000000000
     10112        88  SLPC      H8Y            28.1404045283      -27.6700102491        7.5735372683  MEMB      88              0.0000000000
     10113        88  SLPC      C39            30.0369933761      -26.6695729946        7.3846971962  MEMB      88              0.0000000000
     10114        88  SLPC      H9X            30.7226088684      -27.5024416612        7.6503705450  MEMB      88              0.0000000000
     10115        88  SLPC      H9Y            30.4585896685      -25.7079085058        7.7477106440  MEMB      88              0.0000000000
     10116        88  SLPC      C310           29.8590502297      -26.6414254520        5.7704114007  MEMB      88              0.0000000000
     10117        88  SLPC      H10X           29.1176207181      -25.8600384121        5.4983123007  MEMB      88              0.0000000000
     10118        88  SLPC      H10Y           29.4360571804      -27.6112120086        5.4314253337  MEMB      88              0.0000000000
     10119        88  SLPC      C311           31.1197838495      -26.2648249174        5.0230989967  MEMB      88              0.0000000000
     10120        88  SLPC      H11X           31.8989598726      -27.0396638209        4.8592993098  MEMB      88              0.0000000000
     10121        88  SLPC      H11Y           31.5829813498      -25.3963802875        5.5384365968  MEMB      88              0.0000000000
     10122        88  SLPC      C312           30.5995184708      -25.7352455856        3.6032188621  MEMB      88              0.0000000000
     10123        88  SLPC      H12X           29.9836366907      -24.8243457344        3.7621907938  MEMB      88              0.0000000000
     10124        88  SLPC      H12Y           29.9483562363      -26.5077151846        3.1410500511  MEMB      88              0.0000000000
     10125        88  SLPC      C313           31.6554355453      -25.3443644304        2.5304387029  MEMB      88              0.0000000000
     10126        88  SLPC      H13X           32.1626559232      -26.3092236516        2.3157411230  MEMB      88              0.0000000000
     10127        88  SLPC      H13Y           32.3204815989      -24.6670984665        3.1078000291  MEMB      88              0.0000000000
     10128        88  SLPC      C314           31.2667501021      -24.6755238346        1.2098500625  MEMB      88              0.0000000000
     10129        88  SLPC      H14X           30.7948055371      -23.7109237462        1.4946949357  MEMB      88              0.0000000000
     10130        88  SLPC      H14Y           30.6668056452      -25.3937951150        0.6111236420  MEMB      88              0.0000000000
     10131        88  SLPC      C315           32.6003118091      -24.3153858803        0.4367780715  MEMB      88              0.0000000000
     10132        88  SLPC      H15X           33.3544311066      -24.3574506347        1.2515505090  MEMB      88              0.0000000000
     10133        88  SLPC      H15Y           32.5653936777      -23.2695759364        0.0634369189  MEMB      88              0.0000000000
     10134        88  SLPC      C316           32.8495682053      -25.2690574897       -0.7719235024  MEMB      88              0.0000000000
     10135        88  SLPC      H16X           32.1383461265      -25.1101802814       -1.6105182623  MEMB      88              0.0000000000
     10136        88  SLPC      H16Y           32.6754513123      -26.2475713188       -0.2754204022  MEMB      88              0.0000000000
     10137        88  SLPC      C317           34.2541317672      -25.1369293771       -1.3439541841  MEMB      88              0.0000000000
     10138        88  SLPC      H17X           34.6069466131      -26.1597363936       -1.5963606220  MEMB      88              0.0000000000
     10139        88  SLPC      H17Y           34.9421844099      -24.8239656185       -0.5297327589  MEMB      88              0.0000000000
     10140        88  SLPC      C318           34.3296088012      -24.1252787719       -2.4705980653  MEMB      88              0.0000000000
     10141        88  SLPC      H18X           33.9880238325      -23.1388627336       -2.0903041208  MEMB      88              0.0000000000
     10142        88  SLPC      H18Y           33.6938995158      -24.4534613212       -3.3205939162  MEMB      88              0.0000000000
     10143        88  SLPC      H18Z           35.4008386747      -23.9831363640       -2.7286368894  MEMB      88              0.0000000000
     10144        89  SLPC      N             -35.7948588717      -25.9567227373       17.3698560409  MEMB      89              0.0000000000
     10145        89  SLPC      C13           -34.9567663364      -26.1660780395       18.6723441525  MEMB      89              0.0000000000
     10146        89  SLPC      H13A          -35.0259751463      -27.1969847134       18.9867348775  MEMB      89              0.0000000000
     10147        89  SLPC      H13B          -33.9268875189      -25.8870273514       18.5053700517  MEMB      89              0.0000000000
     10148        89  SLPC      H13C          -35.4266316546      -25.5915326310       19.4568974599  MEMB      89              0.0000000000
     10149        89  SLPC      C14           -37.2208641975      -26.1013920811       17.7771983819  MEMB      89              0.0000000000
     10150        89  SLPC      H14A          -37.9203472549      -25.8384623108       16.9974602604  MEMB      89              0.0000000000
     10151        89  SLPC      H14B          -37.4023517436      -27.1541952013       17.9355260891  MEMB      89              0.0000000000
     10152        89  SLPC      H14C          -37.3411338326      -25.5704728217       18.7099684620  MEMB      89              0.0000000000
     10153        89  SLPC      C15           -35.4054113730      -27.0323331205       16.3799717896  MEMB      89              0.0000000000
     10154        89  SLPC      H15A          -34.6373973382      -26.6399231677       15.7299186787  MEMB      89              0.0000000000
     10155        89  SLPC      H15B          -35.0447592139      -27.9808499254       16.7496283369  MEMB      89              0.0000000000
     10156        89  SLPC      H15C          -36.2846459754      -27.3146800021       15.8199479081  MEMB      89              0.0000000000
     10157        89  SLPC      C12           -35.3690711821      -24.6250005501       16.7640438126  MEMB      89              0.0000000000
     10158        89  SLPC      H12A          -35.5779121611      -23.9642379227       17.5924025947  MEMB      89              0.0000000000
     10159        89  SLPC      H12B          -36.0853309083      -24.5042523138       15.9647993252  MEMB      89              0.0000000000
     10160        89  SLPC      C11           -33.9313098453      -24.5352995533       16.2299304618  MEMB      89              0.0000000000
     10161        89  SLPC      H11A          -33.8017588858      -23.4941881572       15.8643834656  MEMB      89              0.0000000000
     10162        89  SLPC      H11B          -33.7673941451      -25.1412554501       15.3132679488  MEMB      89              0.0000000000
     10163        89  SLPC      P             -31.3556543838      -24.5155520232       16.7908728834  MEMB      89              0.0000000000
     10164        89  SLPC      O13           -31.2397192090      -23.0498139532       16.5028741778  MEMB      89              0.0000000000
     10165        89  SLPC      O14           -30.4749011236      -25.0719276735       17.8357554366  MEMB      89              0.0000000000
     10166        89  SLPC      O12           -32.8883124743      -24.8128375009       17.2057761881  MEMB      89              0.0000000000
     10167        89  SLPC      O11           -31.2527874094      -25.2990230666       15.4713766798  MEMB      89              0.0000000000
     10168        89  SLPC      C1            -29.9448651759      -25.1531230729       14.8021347395  MEMB      89              0.0000000000
     10169        89  SLPC      HA            -29.3659706504      -24.2570895917       15.1124994687  MEMB      89              0.0000000000
     10170        89  SLPC      HB            -29.3233861029      -26.0609333307       14.9569427403  MEMB      89              0.0000000000
     10171        89  SLPC      C2            -30.2363532576      -25.1080172522       13.2862959631  MEMB      89              0.0000000000
     10172        89  SLPC      HS            -29.3204923937      -25.0671032607       12.6587242764  MEMB      89              0.0000000000
     10173        89  SLPC      O21           -30.9963898778      -23.9197364773       13.1305289469  MEMB      89              0.0000000000
     10174        89  SLPC      C21           -30.2763982398      -22.8142986697       13.1026050708  MEMB      89              0.0000000000
     10175        89  SLPC      O22           -29.1419655576      -22.6597540140       13.3860398361  MEMB      89              0.0000000000
     10176        89  SLPC      C22           -31.2430701147      -21.6637908025       12.6984758042  MEMB      89              0.0000000000
     10177        89  SLPC      H2R           -32.1643641211      -22.1760898772       12.3476367844  MEMB      89              0.0000000000
     10178        89  SLPC      H2S           -31.6016093104      -21.1644101403       13.6238892310  MEMB      89              0.0000000000
     10179        89  SLPC      C3            -31.0569668308      -26.3079756936       12.7534447697  MEMB      89              0.0000000000
     10180        89  SLPC      HX            -32.1056072558      -26.1505258174       13.0849321392  MEMB      89              0.0000000000
     10181        89  SLPC      HY            -30.5636200064      -27.2413917682       13.0993703976  MEMB      89              0.0000000000
     10182        89  SLPC      O31           -31.0339570450      -26.3839356534       11.3166880162  MEMB      89              0.0000000000
     10183        89  SLPC      C31           -31.9864782226      -27.1280893893       10.6839089639  MEMB      89              0.0000000000
     10184        89  SLPC      O32           -33.0025272708      -27.5835568954       11.2317308376  MEMB      89              0.0000000000
     10185        89  SLPC      C32           -31.5512500162      -27.3973496986        9.2539784631  MEMB      89              0.0000000000
     10186        89  SLPC      H2X           -31.6895856620      -26.5796678095        8.5146674649  MEMB      89              0.0000000000
     10187        89  SLPC      H2Y           -32.1949118757      -28.2391512378        8.9202261423  MEMB      89              0.0000000000
     10188        89  SLPC      C23           -30.7020091679      -20.7049612905       11.5544158344  MEMB      89              0.0000000000
     10189        89  SLPC      H3R           -29.6014913126      -20.6449337271       11.6943373710  MEMB      89              0.0000000000
     10190        89  SLPC      H3S           -31.1513745435      -19.7030927753       11.7236806472  MEMB      89              0.0000000000
     10191        89  SLPC      C24           -31.0996157345      -21.0655664838       10.1123475503  MEMB      89              0.0000000000
     10192        89  SLPC      H4R           -30.6415685775      -20.3364229353        9.4103045342  MEMB      89              0.0000000000
     10193        89  SLPC      H4S           -32.2016833157      -20.9758360460       10.0041036726  MEMB      89              0.0000000000
     10194        89  SLPC      C25           -30.7276378050      -22.5153077192        9.7253956708  MEMB      89              0.0000000000
     10195        89  SLPC      H5R           -31.1913142201      -23.3290928098       10.3229563434  MEMB      89              0.0000000000
     10196        89  SLPC      H5S           -29.6218766801      -22.6144518879        9.7676300944  MEMB      89              0.0000000000
     10197        89  SLPC      C26           -30.8850705928      -22.8086411741        8.1623327687  MEMB      89              0.0000000000
     10198        89  SLPC      H6R           -31.9317162988      -23.1386375769        7.9892549555  MEMB      89              0.0000000000
     10199        89  SLPC      H6S           -30.2838771866      -23.7271113265        7.9911600511  MEMB      89              0.0000000000
     10200        89  SLPC      C27           -30.5359542347      -21.8270935507        7.0968779244  MEMB      89              0.0000000000
     10201        89  SLPC      H7R           -29.4431551685      -21.7982842180        6.8986841721  MEMB      89              0.0000000000
     10202        89  SLPC      H7S           -30.9826853041      -20.8901319703        7.4929274526  MEMB      89              0.0000000000
     10203        89  SLPC      C28           -31.2099120347      -22.1766123282        5.7560177781  MEMB      89              0.0000000000
     10204        89  SLPC      H8R           -31.0164971988      -21.3259545093        5.0680544105  MEMB      89              0.0000000000
     10205        89  SLPC      H8S           -32.2950431487      -22.3050512102        5.9568024194  MEMB      89              0.0000000000
     10206        89  SLPC      C29           -30.5877600338      -23.5203856375        5.2332323473  MEMB      89              0.0000000000
     10207        89  SLPC      H9R           -30.8306234545      -24.3493961511        5.9142314346  MEMB      89              0.0000000000
     10208        89  SLPC      C210          -29.9183599676      -23.7798704483        4.0516555631  MEMB      89              0.0000000000
     10209        89  SLPC      H10R          -29.5982371517      -24.8084778158        3.8291954602  MEMB      89              0.0000000000
     10210        89  SLPC      C211          -29.7081023206      -22.7437652091        3.0426897682  MEMB      89              0.0000000000
     10211        89  SLPC      H11R          -29.1513856562      -21.8812056916        3.4674003310  MEMB      89              0.0000000000
     10212        89  SLPC      H11S          -30.5956773601      -22.1690000693        2.7018428972  MEMB      89              0.0000000000
     10213        89  SLPC      C212          -28.8234791943      -23.1021859219        1.8645173975  MEMB      89              0.0000000000
     10214        89  SLPC      H12R          -27.7452585066      -22.9054479562        1.9579766825  MEMB      89              0.0000000000
     10215        89  SLPC      C213          -29.2213043082      -23.5982214126        0.7188052366  MEMB      89              0.0000000000
     10216        89  SLPC      H13R          -28.5715129011      -23.8159602081       -0.1416377908  MEMB      89              0.0000000000
     10217        89  SLPC      C214          -30.6529510063      -23.9157167837        0.4460045542  MEMB      89              0.0000000000
     10218        89  SLPC      H14R          -31.2341123274      -23.8302274611        1.3890122873  MEMB      89              0.0000000000
     10219        89  SLPC      H14S          -30.6921042322      -24.9997042638        0.2056728330  MEMB      89              0.0000000000
     10220        89  SLPC      C215          -31.4235648111      -23.0491714016       -0.5472231206  MEMB      89              0.0000000000
     10221        89  SLPC      H15R          -31.3249761057      -21.9708704085       -0.2984905710  MEMB      89              0.0000000000
     10222        89  SLPC      H15S          -32.4926411863      -23.3155119809       -0.4041874182  MEMB      89              0.0000000000
     10223        89  SLPC      C216          -31.0899720817      -23.3928971917       -1.9469101082  MEMB      89              0.0000000000
     10224        89  SLPC      H16R          -31.3693184107      -24.4672840105       -1.9914045370  MEMB      89              0.0000000000
     10225        89  SLPC      H16S          -30.0015156775      -23.2875847104       -2.1431062296  MEMB      89              0.0000000000
     10226        89  SLPC      C217          -31.8536448001      -22.6514256930       -3.0567614659  MEMB      89              0.0000000000
     10227        89  SLPC      H17R          -32.9361484156      -22.8594968688       -2.9181493400  MEMB      89              0.0000000000
     10228        89  SLPC      H17S          -31.6265545681      -23.1077443075       -4.0439415521  MEMB      89              0.0000000000
     10229        89  SLPC      C218          -31.5586913258      -21.1450601859       -3.1074660772  MEMB      89              0.0000000000
     10230        89  SLPC      H18R          -30.4731923202      -20.9524702476       -3.2450246441  MEMB      89              0.0000000000
     10231        89  SLPC      H18S          -31.9865832250      -20.7499021263       -2.1613799058  MEMB      89              0.0000000000
     10232        89  SLPC      H18T          -32.1254775534      -20.5758540316       -3.8749815214  MEMB      89              0.0000000000
     10233        89  SLPC      C33           -30.0981732852      -27.9014241754        9.3707606564  MEMB      89              0.0000000000
     10234        89  SLPC      H3X           -29.9575032869      -28.7992230657       10.0098929286  MEMB      89              0.0000000000
     10235        89  SLPC      H3Y           -29.4667513648      -27.1347294303        9.8685625110  MEMB      89              0.0000000000
     10236        89  SLPC      C34           -29.3993099053      -28.2805578640        8.0490969173  MEMB      89              0.0000000000
     10237        89  SLPC      H4X           -29.9072444936      -29.0913145778        7.4842996170  MEMB      89              0.0000000000
     10238        89  SLPC      H4Y           -28.3119117430      -28.4907129102        8.1369660723  MEMB      89              0.0000000000
     10239        89  SLPC      C35           -29.3153901503      -27.1567889691        6.9609345866  MEMB      89              0.0000000000
     10240        89  SLPC      H5X           -28.8841596398      -26.2557382124        7.4472158117  MEMB      89              0.0000000000
     10241        89  SLPC      H5Y           -30.3503035996      -26.9999167688        6.5885554592  MEMB      89              0.0000000000
     10242        89  SLPC      C36           -28.2742149535      -27.4826409578        5.8782917322  MEMB      89              0.0000000000
     10243        89  SLPC      H6X           -27.2322014708      -27.3680997126        6.2462720268  MEMB      89              0.0000000000
     10244        89  SLPC      H6Y           -28.3935432004      -26.6716613633        5.1283630855  MEMB      89              0.0000000000
     10245        89  SLPC      C37           -28.3378723062      -28.8116919466        5.1868903418  MEMB      89              0.0000000000
     10246        89  SLPC      H7X           -27.9718596739      -29.6227598445        5.8521160884  MEMB      89              0.0000000000
     10247        89  SLPC      H7Y           -27.5299172333      -28.6758949478        4.4364985375  MEMB      89              0.0000000000
     10248        89  SLPC      C38           -29.6524919620      -29.0432624880        4.3624084895  MEMB      89              0.0000000000
     10249        89  SLPC      H8X           -30.5901060877      -28.8494656352        4.9260074835  MEMB      89              0.0000000000
     10250        89  SLPC      H8Y           -29.6200026834      -30.1529679083        4.3197550262  MEMB      89              0.0000000000
     10251        89  SLPC      C39           -29.7200272315      -28.3568526190        3.0019089180  MEMB      89              0.0000000000
     10252        89  SLPC      H9X           -28.8314577901      -28.5410523001        2.3609447264  MEMB      89              0.0000000000
     10253        89  SLPC      H9Y           -29.8491923162      -27.2851817301        3.2648893770  MEMB      89              0.0000000000
     10254        89  SLPC      C310          -31.0180633825      -28.8075623804        2.1737081334  MEMB      89              0.0000000000
     10255        89  SLPC      H10X          -31.4513670560      -29.6808645164        2.7065420477  MEMB      89              0.0000000000
     10256        89  SLPC      H10Y          -30.7175031116      -29.1354159945        1.1556223383  MEMB      89              0.0000000000
     10257        89  SLPC      C311          -32.1618579744      -27.7938549814        2.2747426538  MEMB      89              0.0000000000
     10258        89  SLPC      H11X          -33.0458120655      -28.0481781058        1.6516325328  MEMB      89              0.0000000000
     10259        89  SLPC      H11Y          -31.7745736720      -26.8098850774        1.9339564158  MEMB      89              0.0000000000
     10260        89  SLPC      C312          -32.6345464045      -27.6566744557        3.7487072138  MEMB      89              0.0000000000
     10261        89  SLPC      H12X          -31.8314758436      -27.0481770155        4.2168195009  MEMB      89              0.0000000000
     10262        89  SLPC      H12Y          -32.8785476524      -28.6083244000        4.2675001695  MEMB      89              0.0000000000
     10263        89  SLPC      C313          -33.9750691750      -26.8722864630        3.9444898736  MEMB      89              0.0000000000
     10264        89  SLPC      H13X          -34.0867771745      -26.7407996489        5.0420111414  MEMB      89              0.0000000000
     10265        89  SLPC      H13Y          -34.8214934703      -27.4799851274        3.5590170512  MEMB      89              0.0000000000
     10266        89  SLPC      C314          -33.9277660867      -25.4461356519        3.2678317564  MEMB      89              0.0000000000
     10267        89  SLPC      H14X          -33.7441218714      -25.5096087944        2.1739545791  MEMB      89              0.0000000000
     10268        89  SLPC      H14Y          -33.0979350191      -24.8399249244        3.6899809864  MEMB      89              0.0000000000
     10269        89  SLPC      C315          -35.1671106247      -24.5749155562        3.4298743614  MEMB      89              0.0000000000
     10270        89  SLPC      H15X          -35.2322482562      -24.3674825148        4.5193919718  MEMB      89              0.0000000000
     10271        89  SLPC      H15Y          -36.0756661205      -25.1332531631        3.1182536939  MEMB      89              0.0000000000
     10272        89  SLPC      C316          -35.1950500798      -23.2468888597        2.7820831595  MEMB      89              0.0000000000
     10273        89  SLPC      H16X          -36.0270809043      -22.6278990401        3.1807026015  MEMB      89              0.0000000000
     10274        89  SLPC      H16Y          -35.4246078821      -23.3931864734        1.7049477174  MEMB      89              0.0000000000
     10275        89  SLPC      C317          -34.0026273057      -22.2800929526        2.8911361622  MEMB      89              0.0000000000
     10276        89  SLPC      H17X          -33.1512641357      -22.9681834612        2.7013128251  MEMB      89              0.0000000000
     10277        89  SLPC      H17Y          -33.9284583038      -21.8869882760        3.9276155341  MEMB      89              0.0000000000
     10278        89  SLPC      C318          -33.8666093598      -21.0773684370        1.9141536771  MEMB      89              0.0000000000
     10279        89  SLPC      H18X          -33.9289107335      -21.3975324485        0.8521112831  MEMB      89              0.0000000000
     10280        89  SLPC      H18Y          -32.9190649953      -20.5110431175        2.0396769589  MEMB      89              0.0000000000
     10281        89  SLPC      H18Z          -34.7707270379      -20.4512428127        2.0718203877  MEMB      89              0.0000000000
     10282        90  POPC      N             -24.6786827453       32.9086580901       19.7344760879  MEMB      90              0.0000000000
     10283        90  POPC      C12           -25.4753571079       33.3993400837       18.5341392752  MEMB      90              0.0000000000
     10284        90  POPC      H12A          -26.0400528697       32.5320747734       18.2253198869  MEMB      90              0.0000000000
     10285        90  POPC      H12B          -24.8823329934       33.6070812864       17.6557509596  MEMB      90              0.0000000000
     10286        90  POPC      C13           -23.5706329957       33.8415459408       19.8926086326  MEMB      90              0.0000000000
     10287        90  POPC      H13A          -23.0220769200       33.7433210999       18.9674934954  MEMB      90              0.0000000000
     10288        90  POPC      H13B          -23.9198573653       34.8623139183       19.9423599481  MEMB      90              0.0000000000
     10289        90  POPC      H13C          -22.9806102085       33.6436325369       20.7752770740  MEMB      90              0.0000000000
     10290        90  POPC      C14           -25.5856113453       32.8510231804       20.9032954565  MEMB      90              0.0000000000
     10291        90  POPC      H14A          -25.0705351308       32.5642986471       21.8082184070  MEMB      90              0.0000000000
     10292        90  POPC      H14B          -26.1284391962       33.7746564108       21.0398218614  MEMB      90              0.0000000000
     10293        90  POPC      H14C          -26.3184343034       32.0732012705       20.7472072323  MEMB      90              0.0000000000
     10294        90  POPC      C15           -24.0528209581       31.5048218751       19.4356645257  MEMB      90              0.0000000000
     10295        90  POPC      H15A          -23.8248956297       31.0155629708       20.3711192996  MEMB      90              0.0000000000
     10296        90  POPC      H15B          -23.1720613574       31.6308235291       18.8234668346  MEMB      90              0.0000000000
     10297        90  POPC      H15C          -24.7529517035       30.8728202026       18.9095556254  MEMB      90              0.0000000000
     10298        90  POPC      C11           -26.5154687061       34.5686482909       18.7004322577  MEMB      90              0.0000000000
     10299        90  POPC      H11A          -27.3510451117       34.2625599761       19.3655962073  MEMB      90              0.0000000000
     10300        90  POPC      H11B          -26.9171934298       34.7431787839       17.6794144553  MEMB      90              0.0000000000
     10301        90  POPC      P             -25.7892785744       36.9957680546       18.4161122833  MEMB      90              0.0000000000
     10302        90  POPC      O13           -24.6201316244       37.9521423291       18.7073044542  MEMB      90              0.0000000000
     10303        90  POPC      O14           -27.1635670341       37.5637277883       18.5384326483  MEMB      90              0.0000000000
     10304        90  POPC      O12           -25.7835890402       35.6646279196       19.2297936717  MEMB      90              0.0000000000
     10305        90  POPC      O11           -25.6124558684       36.5666926758       16.9077407038  MEMB      90              0.0000000000
     10306        90  POPC      C1            -25.6992842877       37.5202348686       15.8671857372  MEMB      90              0.0000000000
     10307        90  POPC      HA            -24.9654765421       37.1886685702       15.1017375402  MEMB      90              0.0000000000
     10308        90  POPC      HB            -25.4988453592       38.5662616683       16.1833715277  MEMB      90              0.0000000000
     10309        90  POPC      C2            -27.0271212233       37.2861314873       15.2337237014  MEMB      90              0.0000000000
     10310        90  POPC      HS            -27.7202882690       37.3421866673       16.1001520085  MEMB      90              0.0000000000
     10311        90  POPC      O21           -26.9158929607       36.0683750155       14.5742763786  MEMB      90              0.0000000000
     10312        90  POPC      C21           -28.0742364675       35.3956238859       14.4737460793  MEMB      90              0.0000000000
     10313        90  POPC      O22           -29.1875548933       35.8055614312       14.7693244103  MEMB      90              0.0000000000
     10314        90  POPC      C22           -27.7763284775       33.9947347695       13.9560321954  MEMB      90              0.0000000000
     10315        90  POPC      H2R           -27.9382998102       33.3038554969       14.8108845100  MEMB      90              0.0000000000
     10316        90  POPC      H2S           -26.7479994391       33.9142903926       13.5432502807  MEMB      90              0.0000000000
     10317        90  POPC      C3            -27.4268379307       38.3202238535       14.1726274408  MEMB      90              0.0000000000
     10318        90  POPC      HX            -27.5156078759       39.2440221098       14.7833955016  MEMB      90              0.0000000000
     10319        90  POPC      HY            -28.4557319671       38.1136332252       13.8079107003  MEMB      90              0.0000000000
     10320        90  POPC      O31           -26.4760672850       38.3917111395       13.0771256438  MEMB      90              0.0000000000
     10321        90  POPC      C31           -26.8528242133       39.1509086886       12.1024531978  MEMB      90              0.0000000000
     10322        90  POPC      O32           -27.8048360203       39.9342574603       12.1010324250  MEMB      90              0.0000000000
     10323        90  POPC      C32           -26.0557739703       38.7357783359       10.8266556607  MEMB      90              0.0000000000
     10324        90  POPC      H2X           -26.4607741931       39.4803956326       10.1084343927  MEMB      90              0.0000000000
     10325        90  POPC      H2Y           -26.4948617363       37.7529665611       10.5516932750  MEMB      90              0.0000000000
     10326        90  POPC      C23           -28.8487645552       33.8867326590       12.9064594605  MEMB      90              0.0000000000
     10327        90  POPC      H3R           -29.8648612000       34.0442715928       13.3272322527  MEMB      90              0.0000000000
     10328        90  POPC      H3S           -28.9943124111       32.9000528297       12.4169702341  MEMB      90              0.0000000000
     10329        90  POPC      C24           -28.5242324722       34.8174121632       11.7386178759  MEMB      90              0.0000000000
     10330        90  POPC      H4R           -27.4320842238       34.7740195077       11.5394937824  MEMB      90              0.0000000000
     10331        90  POPC      H4S           -28.7182983596       35.8592118471       12.0722537120  MEMB      90              0.0000000000
     10332        90  POPC      C25           -29.3874764339       34.5148339250       10.4804398818  MEMB      90              0.0000000000
     10333        90  POPC      H5R           -30.4499732042       34.8215469257       10.5869707713  MEMB      90              0.0000000000
     10334        90  POPC      H5S           -29.4354879040       33.4236684429       10.2770349005  MEMB      90              0.0000000000
     10335        90  POPC      C26           -28.7980192311       35.3427693849        9.3072010284  MEMB      90              0.0000000000
     10336        90  POPC      H6R           -27.7376880245       35.0282753326        9.2017853296  MEMB      90              0.0000000000
     10337        90  POPC      H6S           -28.8055107350       36.4367308601        9.5008843350  MEMB      90              0.0000000000
     10338        90  POPC      C27           -29.6605697320       35.2514168898        8.0202957610  MEMB      90              0.0000000000
     10339        90  POPC      H7R           -30.6899325674       35.5731608440        8.2871545791  MEMB      90              0.0000000000
     10340        90  POPC      H7S           -29.8204786766       34.1607725877        7.8815686491  MEMB      90              0.0000000000
     10341        90  POPC      C28           -29.0696280047       35.9395955235        6.8155600957  MEMB      90              0.0000000000
     10342        90  POPC      H8R           -29.6464706739       35.5883026647        5.9334222147  MEMB      90              0.0000000000
     10343        90  POPC      H8S           -28.0285045572       35.5582082801        6.7453692663  MEMB      90              0.0000000000
     10344        90  POPC      C29           -28.9204084827       37.3990169190        6.9944022142  MEMB      90              0.0000000000
     10345        90  POPC      H91           -29.6313189277       37.9142466496        7.6570822064  MEMB      90              0.0000000000
     10346        90  POPC      C210          -28.1481846891       38.2789339193        6.2807342178  MEMB      90              0.0000000000
     10347        90  POPC      H101          -28.0856193657       39.3161553060        6.6416451648  MEMB      90              0.0000000000
     10348        90  POPC      C211          -27.2304216589       38.0473564708        5.2271939453  MEMB      90              0.0000000000
     10349        90  POPC      H11R          -27.2668013986       36.9840802387        4.9071293337  MEMB      90              0.0000000000
     10350        90  POPC      H11S          -26.1721200823       38.1745079167        5.5404852241  MEMB      90              0.0000000000
     10351        90  POPC      C212          -27.2869480423       38.9354684361        3.9287807575  MEMB      90              0.0000000000
     10352        90  POPC      H12R          -27.6441295774       39.9369939344        4.2507887333  MEMB      90              0.0000000000
     10353        90  POPC      H12S          -27.9121090475       38.3495973489        3.2214973169  MEMB      90              0.0000000000
     10354        90  POPC      C213          -25.9395045164       39.1118708610        3.1640044222  MEMB      90              0.0000000000
     10355        90  POPC      H13R          -25.2080377490       39.3834101975        3.9549176151  MEMB      90              0.0000000000
     10356        90  POPC      H13S          -25.7914900997       40.0625007793        2.6083833703  MEMB      90              0.0000000000
     10357        90  POPC      C214          -25.5292497263       37.9495530253        2.2807858050  MEMB      90              0.0000000000
     10358        90  POPC      H14R          -26.2148746179       37.9743335252        1.4069295416  MEMB      90              0.0000000000
     10359        90  POPC      H14S          -25.8695664772       37.0372025838        2.8156898473  MEMB      90              0.0000000000
     10360        90  POPC      C215          -24.0920700519       38.0763738994        1.8937065081  MEMB      90              0.0000000000
     10361        90  POPC      H15R          -23.4863791737       37.8054898852        2.7848183678  MEMB      90              0.0000000000
     10362        90  POPC      H15S          -23.8259213787       39.1329137802        1.6764287934  MEMB      90              0.0000000000
     10363        90  POPC      C216          -23.6512752742       37.2608187804        0.6673279305  MEMB      90              0.0000000000
     10364        90  POPC      H16R          -24.3569628073       37.4272759272       -0.1744662493  MEMB      90              0.0000000000
     10365        90  POPC      H16S          -23.6081067106       36.1925828586        0.9695369455  MEMB      90              0.0000000000
     10366        90  POPC      C217          -22.2224458786       37.5419386608        0.1923908468  MEMB      90              0.0000000000
     10367        90  POPC      H17R          -22.0933199544       38.6399511351        0.0827715511  MEMB      90              0.0000000000
     10368        90  POPC      H17S          -22.0682363503       37.0043358507       -0.7675697075  MEMB      90              0.0000000000
     10369        90  POPC      C218          -21.1754708866       37.0465956141        1.1724552268  MEMB      90              0.0000000000
     10370        90  POPC      H18R          -21.3610740604       37.6403947646        2.0929316929  MEMB      90              0.0000000000
     10371        90  POPC      H18S          -20.0931204150       37.1307501892        0.9363278286  MEMB      90              0.0000000000
     10372        90  POPC      H18T          -21.3837336010       35.9739722354        1.3735208478  MEMB      90              0.0000000000
     10373        90  POPC      C33           -24.5874882818       38.8451134937       11.0366192323  MEMB      90              0.0000000000
     10374        90  POPC      H3X           -24.1620061397       38.1058931885       11.7485457027  MEMB      90              0.0000000000
     10375        90  POPC      H3Y           -24.3210158029       39.8529888347       11.4206781496  MEMB      90              0.0000000000
     10376        90  POPC      C34           -23.6996066764       38.8390628216        9.7429464600  MEMB      90              0.0000000000
     10377        90  POPC      H4X           -22.7350195144       39.2801137442       10.0736534554  MEMB      90              0.0000000000
     10378        90  POPC      H4Y           -24.1586322821       39.6131803373        9.0915189192  MEMB      90              0.0000000000
     10379        90  POPC      C35           -23.5137577656       37.4627838134        8.9525927241  MEMB      90              0.0000000000
     10380        90  POPC      H5X           -23.3251067390       36.6113005380        9.6408570331  MEMB      90              0.0000000000
     10381        90  POPC      H5Y           -22.5979720961       37.6182337928        8.3430898480  MEMB      90              0.0000000000
     10382        90  POPC      C36           -24.6702815212       37.0002339419        8.0512870249  MEMB      90              0.0000000000
     10383        90  POPC      H6X           -25.0344944338       37.9249842158        7.5547920735  MEMB      90              0.0000000000
     10384        90  POPC      H6Y           -25.3718660121       36.5296710202        8.7728613898  MEMB      90              0.0000000000
     10385        90  POPC      C37           -24.3920777800       35.8526635080        7.0191488576  MEMB      90              0.0000000000
     10386        90  POPC      H7X           -25.3647860436       35.4147996176        6.7086091004  MEMB      90              0.0000000000
     10387        90  POPC      H7Y           -23.9627865564       35.0024721620        7.5911664064  MEMB      90              0.0000000000
     10388        90  POPC      C38           -23.5451791010       36.3030275772        5.8822244635  MEMB      90              0.0000000000
     10389        90  POPC      H8X           -22.9518581475       37.1705233931        6.2424211813  MEMB      90              0.0000000000
     10390        90  POPC      H8Y           -24.2434393172       36.6251529404        5.0803579853  MEMB      90              0.0000000000
     10391        90  POPC      C39           -22.6173222353       35.3203442492        5.1652532811  MEMB      90              0.0000000000
     10392        90  POPC      H9X           -21.7982396012       35.0227224833        5.8543448017  MEMB      90              0.0000000000
     10393        90  POPC      H9Y           -22.1828898523       35.7186377470        4.2234727802  MEMB      90              0.0000000000
     10394        90  POPC      C310          -23.3615965416       34.0758487731        4.6800924427  MEMB      90              0.0000000000
     10395        90  POPC      H10X          -23.6591393477       33.6104386786        5.6440339702  MEMB      90              0.0000000000
     10396        90  POPC      H10Y          -22.5336665562       33.6245591094        4.0925635904  MEMB      90              0.0000000000
     10397        90  POPC      C311          -24.4622680914       34.2532596515        3.5915909648  MEMB      90              0.0000000000
     10398        90  POPC      H11X          -24.1254602353       34.7909649508        2.6795854225  MEMB      90              0.0000000000
     10399        90  POPC      H11Y          -25.2375082225       34.9449927912        3.9850738866  MEMB      90              0.0000000000
     10400        90  POPC      C312          -25.0727378973       32.9202649306        2.9674542334  MEMB      90              0.0000000000
     10401        90  POPC      H12X          -25.8112880210       32.4699820863        3.6646705972  MEMB      90              0.0000000000
     10402        90  POPC      H12Y          -24.2487243812       32.1881553079        2.8283918495  MEMB      90              0.0000000000
     10403        90  POPC      C313          -25.7612023449       33.1844856014        1.6580092073  MEMB      90              0.0000000000
     10404        90  POPC      H13X          -26.1712173843       32.2303134251        1.2633398083  MEMB      90              0.0000000000
     10405        90  POPC      H13Y          -24.9521338915       33.5467514038        0.9883131829  MEMB      90              0.0000000000
     10406        90  POPC      C314          -26.8005158613       34.3590251173        1.5183152213  MEMB      90              0.0000000000
     10407        90  POPC      H14X          -27.0800590233       34.4928079895        0.4514143963  MEMB      90              0.0000000000
     10408        90  POPC      H14Y          -26.1724355107       35.2645007980        1.6595601245  MEMB      90              0.0000000000
     10409        90  POPC      C315          -28.1720168753       34.2640728293        2.2351552798  MEMB      90              0.0000000000
     10410        90  POPC      H15X          -28.1344134691       33.9711850420        3.3061936787  MEMB      90              0.0000000000
     10411        90  POPC      H15Y          -28.7509087739       33.4363678571        1.7724346592  MEMB      90              0.0000000000
     10412        90  POPC      C316          -28.9678239808       35.6035749208        2.1460600603  MEMB      90              0.0000000000
     10413        90  POPC      H16X          -29.1185809730       35.8503912608        1.0733641233  MEMB      90              0.0000000000
     10414        90  POPC      H16Y          -28.5012430403       36.5051475577        2.5974908093  MEMB      90              0.0000000000
     10415        90  POPC      H16Z          -29.9571252472       35.4255455230        2.6192502247  MEMB      90              0.0000000000
     10416        91  CHL1      C3            -29.3236276461      -32.4387126777       17.3900850000  MEMB      91              0.0000000000
     10417        91  CHL1      H3            -28.3510570817      -32.2555403825       16.8852350000  MEMB      91              0.0000000000
     10418        91  CHL1      O3            -29.3403931539      -31.7855307223       18.6099150000  MEMB      91              0.0000000000
     10419        91  CHL1      H3'           -28.4201457473      -31.7639388582       18.8824650000  MEMB      91              0.0000000000
     10420        91  CHL1      C4            -30.4304909721      -31.8679165778       16.4906650000  MEMB      91              0.0000000000
     10421        91  CHL1      H4A           -31.3884093090      -32.1006083108       17.0030950000  MEMB      91              0.0000000000
     10422        91  CHL1      H4B           -30.2428892498      -30.7757239919       16.4117750000  MEMB      91              0.0000000000
     10423        91  CHL1      C5            -30.3402209227      -32.3964856431       15.1321750000  MEMB      91              0.0000000000
     10424        91  CHL1      C6            -30.1081621352      -31.6005261707       14.0551250000  MEMB      91              0.0000000000
     10425        91  CHL1      H6            -29.9796299642      -30.5132626938       14.1616350000  MEMB      91              0.0000000000
     10426        91  CHL1      C7            -30.1644808053      -32.0587140609       12.6404750000  MEMB      91              0.0000000000
     10427        91  CHL1      H7A           -30.7802111987      -31.3385749316       12.0602950000  MEMB      91              0.0000000000
     10428        91  CHL1      H7B           -29.1497061089      -32.1246312362       12.1930250000  MEMB      91              0.0000000000
     10429        91  CHL1      C8            -30.8949801745      -33.4242253822       12.5799750000  MEMB      91              0.0000000000
     10430        91  CHL1      H8            -31.9630272002      -33.3225726234       12.8685150000  MEMB      91              0.0000000000
     10431        91  CHL1      C14           -30.8205555552      -33.9098856274       11.2004450000  MEMB      91              0.0000000000
     10432        91  CHL1      H14           -29.7266041822      -33.8561696902       11.0141450000  MEMB      91              0.0000000000
     10433        91  CHL1      C15           -31.3833239363      -33.0049344537       10.0742150000  MEMB      91              0.0000000000
     10434        91  CHL1      H15A          -32.4827178928      -32.8945673141       10.1902550000  MEMB      91              0.0000000000
     10435        91  CHL1      H15B          -30.8320376249      -32.0509091683        9.9318850000  MEMB      91              0.0000000000
     10436        91  CHL1      C16           -31.3035719476      -33.9258976201        8.8313350000  MEMB      91              0.0000000000
     10437        91  CHL1      H16A          -32.3138175365      -33.8971640714        8.3699250000  MEMB      91              0.0000000000
     10438        91  CHL1      H16B          -30.5434475582      -33.5852196921        8.0961650000  MEMB      91              0.0000000000
     10439        91  CHL1      C17           -31.1030226305      -35.3840976393        9.2992450000  MEMB      91              0.0000000000
     10440        91  CHL1      H17           -30.0182313916      -35.6123731536        9.2254950000  MEMB      91              0.0000000000
     10441        91  CHL1      C13           -31.2814347369      -35.2667590148       10.8581350000  MEMB      91              0.0000000000
     10442        91  CHL1      C18           -32.7213562587      -35.4546369219       11.2072950000  MEMB      91              0.0000000000
     10443        91  CHL1      H18A          -32.9288957690      -35.2005776270       12.2687550000  MEMB      91              0.0000000000
     10444        91  CHL1      H18B          -33.2908037771      -34.7780954197       10.5347350000  MEMB      91              0.0000000000
     10445        91  CHL1      H18C          -33.0598712382      -36.4976362390       11.0286950000  MEMB      91              0.0000000000
     10446        91  CHL1      C12           -30.5653270225      -36.2703925689       11.6902450000  MEMB      91              0.0000000000
     10447        91  CHL1      H12A          -30.9869037417      -37.2941252619       11.5976950000  MEMB      91              0.0000000000
     10448        91  CHL1      H12B          -29.4923007378      -36.3699193032       11.4199950000  MEMB      91              0.0000000000
     10449        91  CHL1      C11           -30.6840747463      -35.8580542386       13.1770450000  MEMB      91              0.0000000000
     10450        91  CHL1      H11A          -31.6622453308      -36.1381946330       13.6231750000  MEMB      91              0.0000000000
     10451        91  CHL1      H11B          -29.9293889116      -36.4614411028       13.7253950000  MEMB      91              0.0000000000
     10452        91  CHL1      C9            -30.2320448479      -34.4401277089       13.5021350000  MEMB      91              0.0000000000
     10453        91  CHL1      H9            -29.1597553159      -34.3213974598       13.2367650000  MEMB      91              0.0000000000
     10454        91  CHL1      C10           -30.4639242466      -33.9524391118       14.9835750000  MEMB      91              0.0000000000
     10455        91  CHL1      C19           -31.8999440255      -34.3554793557       15.3203550000  MEMB      91              0.0000000000
     10456        91  CHL1      H19A          -31.9069040809      -35.4414765017       15.5546150000  MEMB      91              0.0000000000
     10457        91  CHL1      H19B          -32.3013113781      -33.8840142235       16.2428350000  MEMB      91              0.0000000000
     10458        91  CHL1      H19C          -32.5242748768      -34.2804579222       14.4044450000  MEMB      91              0.0000000000
     10459        91  CHL1      C1            -29.3558999167      -34.4614405503       15.9691150000  MEMB      91              0.0000000000
     10460        91  CHL1      H1A           -29.3323730980      -35.5720716751       15.9855950000  MEMB      91              0.0000000000
     10461        91  CHL1      H1B           -28.3574294040      -34.1948198496       15.5613150000  MEMB      91              0.0000000000
     10462        91  CHL1      C2            -29.4734287639      -33.9947842659       17.4079350000  MEMB      91              0.0000000000
     10463        91  CHL1      H2A           -28.6018226503      -34.4590929312       17.9168750000  MEMB      91              0.0000000000
     10464        91  CHL1      H2B           -30.4049356461      -34.4042181214       17.8539950000  MEMB      91              0.0000000000
     10465        91  CHL1      C20           -31.9336014651      -36.4512124494        8.5599050000  MEMB      91              0.0000000000
     10466        91  CHL1      H20           -33.0067314181      -36.3416965583        8.8258450000  MEMB      91              0.0000000000
     10467        91  CHL1      C21           -31.6100708367      -37.8883568307        8.8333550000  MEMB      91              0.0000000000
     10468        91  CHL1      H21A          -31.8269609616      -38.1921423763        9.8797750000  MEMB      91              0.0000000000
     10469        91  CHL1      H21B          -30.5522257857      -38.0573597210        8.5388850000  MEMB      91              0.0000000000
     10470        91  CHL1      H21C          -32.3038713876      -38.5399322039        8.2602850000  MEMB      91              0.0000000000
     10471        91  CHL1      C22           -32.0523818890      -36.2493506628        6.9826450000  MEMB      91              0.0000000000
     10472        91  CHL1      H22A          -32.8796544362      -36.9083468646        6.6425350000  MEMB      91              0.0000000000
     10473        91  CHL1      H22B          -32.4939305237      -35.2394749720        6.8429850000  MEMB      91              0.0000000000
     10474        91  CHL1      C23           -30.8128994595      -36.3888213662        6.0861550000  MEMB      91              0.0000000000
     10475        91  CHL1      H23A          -30.2027121557      -35.5045420312        6.3690750000  MEMB      91              0.0000000000
     10476        91  CHL1      H23B          -30.1695655924      -37.2304964192        6.4208550000  MEMB      91              0.0000000000
     10477        91  CHL1      C24           -31.1027854529      -36.3968562985        4.5783950000  MEMB      91              0.0000000000
     10478        91  CHL1      H24A          -31.8160162391      -37.1898859840        4.2673850000  MEMB      91              0.0000000000
     10479        91  CHL1      H24B          -31.5774798988      -35.4425298382        4.2649750000  MEMB      91              0.0000000000
     10480        91  CHL1      C25           -29.8111448141      -36.7135762019        3.7756750000  MEMB      91              0.0000000000
     10481        91  CHL1      H25           -29.0906077596      -35.9091029050        4.0364050000  MEMB      91              0.0000000000
     10482        91  CHL1      C26           -29.3055073324      -38.1200121339        4.1305750000  MEMB      91              0.0000000000
     10483        91  CHL1      H26A          -28.7296969622      -38.1250170906        5.0806950000  MEMB      91              0.0000000000
     10484        91  CHL1      H26B          -30.1063512165      -38.8839782755        4.0339850000  MEMB      91              0.0000000000
     10485        91  CHL1      H26C          -28.4803788445      -38.2786991323        3.4037350000  MEMB      91              0.0000000000
     10486        91  CHL1      C27           -30.1178511338      -36.7434685683        2.2118550000  MEMB      91              0.0000000000
     10487        91  CHL1      H27A          -30.3930336052      -35.6944515653        1.9707150000  MEMB      91              0.0000000000
     10488        91  CHL1      H27B          -29.2524113859      -37.0078531770        1.5673050000  MEMB      91              0.0000000000
     10489        91  CHL1      H27C          -31.0157030136      -37.3600697844        1.9927650000  MEMB      91              0.0000000000
     10490        92  SOPE      N             -36.8720525734       24.7914683419       23.4721465555  MEMB      92              0.0000000000
     10491        92  SOPE      HN1           -37.7190250256       25.3941641867       23.5036952448  MEMB      92              0.0000000000
     10492        92  SOPE      HN2           -37.0438534642       24.0538341745       22.7594192618  MEMB      92              0.0000000000
     10493        92  SOPE      HN3           -36.7750205806       24.3615025291       24.4141201912  MEMB      92              0.0000000000
     10494        92  SOPE      C12           -35.5545947251       25.5893289301       23.2511652568  MEMB      92              0.0000000000
     10495        92  SOPE      H12A          -34.7591975796       24.9250094986       22.8507351661  MEMB      92              0.0000000000
     10496        92  SOPE      H12B          -35.3327587212       25.9996028050       24.2595229451  MEMB      92              0.0000000000
     10497        92  SOPE      C11           -35.7568631672       26.7379494929       22.2645046443  MEMB      92              0.0000000000
     10498        92  SOPE      H11A          -34.9130535063       27.4542619728       22.1685734471  MEMB      92              0.0000000000
     10499        92  SOPE      H11B          -36.6533409749       27.2596102653       22.6626485705  MEMB      92              0.0000000000
     10500        92  SOPE      P             -34.9213858813       26.2196397534       19.8048359873  MEMB      92              0.0000000000
     10501        92  SOPE      O13           -34.0127985607       25.1257852510       20.0997298123  MEMB      92              0.0000000000
     10502        92  SOPE      O14           -34.3611890178       27.6171594521       19.6764922645  MEMB      92              0.0000000000
     10503        92  SOPE      O12           -36.0976675170       26.2218786453       20.9382061640  MEMB      92              0.0000000000
     10504        92  SOPE      O11           -35.6743517537       25.9959237314       18.4929193133  MEMB      92              0.0000000000
     10505        92  SOPE      C1            -36.5766055757       24.8965585401       18.2790839534  MEMB      92              0.0000000000
     10506        92  SOPE      HA            -37.1691172799       24.7488349573       19.2072156455  MEMB      92              0.0000000000
     10507        92  SOPE      HB            -36.0071246606       23.9432776060       18.2434773912  MEMB      92              0.0000000000
     10508        92  SOPE      C2            -37.5204345505       24.9284118326       16.9707839951  MEMB      92              0.0000000000
     10509        92  SOPE      HS            -38.1172528227       23.9930700816       16.9136465245  MEMB      92              0.0000000000
     10510        92  SOPE      O21           -36.6447335541       25.0615983697       15.8680885173  MEMB      92              0.0000000000
     10511        92  SOPE      C21           -36.3773630381       24.0653970922       15.0036720165  MEMB      92              0.0000000000
     10512        92  SOPE      O22           -36.9206958463       23.0004136027       14.9449613508  MEMB      92              0.0000000000
     10513        92  SOPE      C22           -35.0971758782       24.2415657635       14.1445963257  MEMB      92              0.0000000000
     10514        92  SOPE      H2R           -35.3301810875       24.3032672291       13.0600583026  MEMB      92              0.0000000000
     10515        92  SOPE      H2S           -34.5013437447       23.3174951677       14.3039649917  MEMB      92              0.0000000000
     10516        92  SOPE      C3            -38.4497519006       26.1730732216       17.0155037262  MEMB      92              0.0000000000
     10517        92  SOPE      HX            -37.8939645999       27.0768318471       17.3451122986  MEMB      92              0.0000000000
     10518        92  SOPE      HY            -39.3163173475       25.9829816764       17.6842720294  MEMB      92              0.0000000000
     10519        92  SOPE      O31           -38.9294981030       26.4128350970       15.7009571014  MEMB      92              0.0000000000
     10520        92  SOPE      C31           -38.8525366007       27.5995838762       15.1701978496  MEMB      92              0.0000000000
     10521        92  SOPE      O32           -38.2883129356       28.6075644405       15.6167256418  MEMB      92              0.0000000000
     10522        92  SOPE      C32           -39.6076088117       27.5837011355       13.8118682108  MEMB      92              0.0000000000
     10523        92  SOPE      H2X           -40.1685016287       28.5275939655       13.6422005294  MEMB      92              0.0000000000
     10524        92  SOPE      H2Y           -40.3526618058       26.7627726904       13.7391096666  MEMB      92              0.0000000000
     10525        92  SOPE      C23           -34.2866359600       25.5256781216       14.5746069184  MEMB      92              0.0000000000
     10526        92  SOPE      H3R           -33.9184310377       25.4556343173       15.6204749319  MEMB      92              0.0000000000
     10527        92  SOPE      H3S           -34.9405230571       26.4008875706       14.3727131234  MEMB      92              0.0000000000
     10528        92  SOPE      C24           -32.9890512570       25.8093151431       13.6504815719  MEMB      92              0.0000000000
     10529        92  SOPE      H4R           -32.3703220389       26.6523288165       14.0257454173  MEMB      92              0.0000000000
     10530        92  SOPE      H4S           -32.3651168136       24.8925290530       13.5831761190  MEMB      92              0.0000000000
     10531        92  SOPE      C25           -33.2848589367       26.1847787128       12.1997981121  MEMB      92              0.0000000000
     10532        92  SOPE      H5R           -34.3041588447       26.6150600914       12.0987698115  MEMB      92              0.0000000000
     10533        92  SOPE      H5S           -32.5587302083       26.9297763665       11.8098786142  MEMB      92              0.0000000000
     10534        92  SOPE      C26           -33.3184121529       24.9591093276       11.2397309130  MEMB      92              0.0000000000
     10535        92  SOPE      H6R           -33.8979711912       24.0839692839       11.6038217477  MEMB      92              0.0000000000
     10536        92  SOPE      H6S           -33.9061601007       25.3565305148       10.3847859367  MEMB      92              0.0000000000
     10537        92  SOPE      C27           -31.9167377508       24.4804345874       10.8404230314  MEMB      92              0.0000000000
     10538        92  SOPE      H7R           -31.3296422193       25.3768382245       10.5469944260  MEMB      92              0.0000000000
     10539        92  SOPE      H7S           -31.2867207391       24.0012963074       11.6200550293  MEMB      92              0.0000000000
     10540        92  SOPE      C28           -31.9732283625       23.4984635397        9.6028988181  MEMB      92              0.0000000000
     10541        92  SOPE      H8R           -32.1781625920       24.1155959910        8.7020826956  MEMB      92              0.0000000000
     10542        92  SOPE      H8S           -30.9890945429       23.0032384993        9.4595317420  MEMB      92              0.0000000000
     10543        92  SOPE      C29           -33.0316879197       22.4287306635        9.6661216605  MEMB      92              0.0000000000
     10544        92  SOPE      H91           -33.0676852932       21.7631827899       10.5411935320  MEMB      92              0.0000000000
     10545        92  SOPE      C210          -34.0059434931       22.1068222362        8.7402265677  MEMB      92              0.0000000000
     10546        92  SOPE      H101          -34.7979781933       21.3812542527        8.9773597282  MEMB      92              0.0000000000
     10547        92  SOPE      C211          -34.2561288375       22.7166258953        7.3386331155  MEMB      92              0.0000000000
     10548        92  SOPE      H11R          -34.2209631179       21.8415665539        6.6549991578  MEMB      92              0.0000000000
     10549        92  SOPE      H11S          -33.3987518433       23.3657629625        7.0596225942  MEMB      92              0.0000000000
     10550        92  SOPE      C212          -35.7062431872       23.3317800568        7.2026291660  MEMB      92              0.0000000000
     10551        92  SOPE      H12R          -36.3546339305       23.0025236767        8.0425703501  MEMB      92              0.0000000000
     10552        92  SOPE      H12S          -36.1569703432       22.8156602876        6.3281089296  MEMB      92              0.0000000000
     10553        92  SOPE      C213          -35.7871715598       24.8436174813        7.1948711687  MEMB      92              0.0000000000
     10554        92  SOPE      H13R          -34.9782060069       25.3493292118        7.7642138652  MEMB      92              0.0000000000
     10555        92  SOPE      H13S          -36.7560178644       25.1424100177        7.6491626779  MEMB      92              0.0000000000
     10556        92  SOPE      C214          -35.7140544130       25.4186532968        5.7467929249  MEMB      92              0.0000000000
     10557        92  SOPE      H14R          -36.0741341483       24.5992949721        5.0885264783  MEMB      92              0.0000000000
     10558        92  SOPE      H14S          -34.6439517697       25.5840933716        5.4981352755  MEMB      92              0.0000000000
     10559        92  SOPE      C215          -36.3354140427       26.8515827096        5.4084497121  MEMB      92              0.0000000000
     10560        92  SOPE      H15R          -35.8004207346       27.5801162004        6.0544692707  MEMB      92              0.0000000000
     10561        92  SOPE      H15S          -37.3363450294       26.8962462572        5.8885153591  MEMB      92              0.0000000000
     10562        92  SOPE      C216          -36.4269303230       27.4192046174        3.9465325481  MEMB      92              0.0000000000
     10563        92  SOPE      H16R          -37.1756141879       26.8789437511        3.3285423841  MEMB      92              0.0000000000
     10564        92  SOPE      H16S          -35.5566308097       27.0688817783        3.3514086480  MEMB      92              0.0000000000
     10565        92  SOPE      C217          -36.6388015199       28.9130947256        3.7954165270  MEMB      92              0.0000000000
     10566        92  SOPE      H17R          -35.7041925569       29.4285486502        4.1038552956  MEMB      92              0.0000000000
     10567        92  SOPE      H17S          -37.5302921560       29.2850924263        4.3442185994  MEMB      92              0.0000000000
     10568        92  SOPE      C218          -36.7825315788       29.3352029564        2.3289282361  MEMB      92              0.0000000000
     10569        92  SOPE      H18R          -37.4005432910       28.6815709804        1.6768954553  MEMB      92              0.0000000000
     10570        92  SOPE      H18S          -35.7806650639       29.2401441651        1.8582391851  MEMB      92              0.0000000000
     10571        92  SOPE      H18T          -37.0829188460       30.4040909234        2.2893478175  MEMB      92              0.0000000000
     10572        92  SOPE      C33           -38.7710454011       27.5284723041       12.4924873260  MEMB      92              0.0000000000
     10573        92  SOPE      H3X           -39.3429805779       27.9367435950       11.6319487869  MEMB      92              0.0000000000
     10574        92  SOPE      H3Y           -38.4129039732       26.4829627394       12.3786207489  MEMB      92              0.0000000000
     10575        92  SOPE      C34           -37.5477008533       28.5388432383       12.4926887628  MEMB      92              0.0000000000
     10576        92  SOPE      H4X           -36.6839592569       28.1168314579       13.0496241595  MEMB      92              0.0000000000
     10577        92  SOPE      H4Y           -37.9470794529       29.5050297530       12.8685893422  MEMB      92              0.0000000000
     10578        92  SOPE      C35           -37.0473132673       28.7675536565       11.0146187443  MEMB      92              0.0000000000
     10579        92  SOPE      H5X           -37.9645950934       29.0323618457       10.4464714387  MEMB      92              0.0000000000
     10580        92  SOPE      H5Y           -36.7549977265       27.8106523952       10.5316981824  MEMB      92              0.0000000000
     10581        92  SOPE      C36           -35.9529906329       29.8312568932       10.8069008839  MEMB      92              0.0000000000
     10582        92  SOPE      H6X           -35.1878517362       29.7766351272       11.6105798692  MEMB      92              0.0000000000
     10583        92  SOPE      H6Y           -36.4172283966       30.8405318416       10.8198732391  MEMB      92              0.0000000000
     10584        92  SOPE      C37           -35.1920302000       29.6813534045        9.4927799300  MEMB      92              0.0000000000
     10585        92  SOPE      H7X           -35.9312759702       29.5050634551        8.6823736660  MEMB      92              0.0000000000
     10586        92  SOPE      H7Y           -34.5907207115       28.7472266800        9.4803267191  MEMB      92              0.0000000000
     10587        92  SOPE      C38           -34.4177260597       30.9508426086        9.0994568708  MEMB      92              0.0000000000
     10588        92  SOPE      H8X           -34.0337029561       31.4585158138       10.0100138150  MEMB      92              0.0000000000
     10589        92  SOPE      H8Y           -35.1961407147       31.6027857175        8.6485001278  MEMB      92              0.0000000000
     10590        92  SOPE      C39           -33.1522180405       30.7332203666        8.2575621671  MEMB      92              0.0000000000
     10591        92  SOPE      H9X           -32.6830936891       29.8777240527        8.7889468306  MEMB      92              0.0000000000
     10592        92  SOPE      H9Y           -32.5222051917       31.6436514092        8.1652590155  MEMB      92              0.0000000000
     10593        92  SOPE      C310          -33.5258626949       30.3118751482        6.7978469127  MEMB      92              0.0000000000
     10594        92  SOPE      H10X          -34.1132140095       31.1428697346        6.3519916407  MEMB      92              0.0000000000
     10595        92  SOPE      H10Y          -34.1552760491       29.3979618217        6.7437880249  MEMB      92              0.0000000000
     10596        92  SOPE      C311          -32.3092767722       29.9248066461        5.8864703750  MEMB      92              0.0000000000
     10597        92  SOPE      H11X          -31.7093867665       29.1457342411        6.4036731462  MEMB      92              0.0000000000
     10598        92  SOPE      H11Y          -31.6377136482       30.8091214791        5.8502580235  MEMB      92              0.0000000000
     10599        92  SOPE      C312          -32.7767203259       29.6484396004        4.4463822846  MEMB      92              0.0000000000
     10600        92  SOPE      H12X          -33.2737647947       30.5885170343        4.1246331025  MEMB      92              0.0000000000
     10601        92  SOPE      H12Y          -33.5498374551       28.8541452755        4.5219269713  MEMB      92              0.0000000000
     10602        92  SOPE      C313          -31.6101509049       29.4411361715        3.4964949314  MEMB      92              0.0000000000
     10603        92  SOPE      H13X          -30.8480735310       30.1970334213        3.7831632294  MEMB      92              0.0000000000
     10604        92  SOPE      H13Y          -31.9775695323       29.7058294194        2.4819689676  MEMB      92              0.0000000000
     10605        92  SOPE      C314          -31.1008487201       28.0005469905        3.4148867037  MEMB      92              0.0000000000
     10606        92  SOPE      H14X          -30.7736019798       27.6154406061        4.4042928140  MEMB      92              0.0000000000
     10607        92  SOPE      H14Y          -30.3008267354       27.9585051543        2.6451347372  MEMB      92              0.0000000000
     10608        92  SOPE      C315          -32.2750967979       27.0959698327        2.7817809948  MEMB      92              0.0000000000
     10609        92  SOPE      H15X          -32.5757414728       27.4848871696        1.7854489473  MEMB      92              0.0000000000
     10610        92  SOPE      H15Y          -33.2220078941       27.0852351570        3.3627832943  MEMB      92              0.0000000000
     10611        92  SOPE      C316          -31.8028168458       25.6127049864        2.5728273841  MEMB      92              0.0000000000
     10612        92  SOPE      H16X          -31.6359499299       25.2451313809        3.6078967213  MEMB      92              0.0000000000
     10613        92  SOPE      H16Y          -30.8742209431       25.6730832462        1.9658800622  MEMB      92              0.0000000000
     10614        92  SOPE      C317          -32.7849451726       24.6870756558        1.8706101614  MEMB      92              0.0000000000
     10615        92  SOPE      H17X          -33.6629419354       24.5687909745        2.5410217351  MEMB      92              0.0000000000
     10616        92  SOPE      H17Y          -32.3941225740       23.6525470226        1.7641697262  MEMB      92              0.0000000000
     10617        92  SOPE      C318          -33.3072264674       25.2202512749        0.5530615921  MEMB      92              0.0000000000
     10618        92  SOPE      H18X          -33.6962584027       26.2459937653        0.7286386794  MEMB      92              0.0000000000
     10619        92  SOPE      H18Y          -34.1476383564       24.6531398247        0.0987335048  MEMB      92              0.0000000000
     10620        92  SOPE      H18Z          -32.4131051777       25.2403706437       -0.1060774411  MEMB      92              0.0000000000
     10621        93  SAPE      N              30.2023914222      -31.4780059031       21.6855083661  MEMB      93              0.0000000000
     10622        93  SAPE      HN1            29.1688630994      -31.5147015230       21.7953833820  MEMB      93              0.0000000000
     10623        93  SAPE      HN2            30.7024486475      -31.8830775941       22.5024905507  MEMB      93              0.0000000000
     10624        93  SAPE      HN3            30.4577229107      -30.4744570798       21.5890947361  MEMB      93              0.0000000000
     10625        93  SAPE      C12            30.4656130232      -32.1873536508       20.4160948171  MEMB      93              0.0000000000
     10626        93  SAPE      H12A           31.5148874314      -32.0831063848       20.0661276883  MEMB      93              0.0000000000
     10627        93  SAPE      H12B           29.9931256974      -31.6175984159       19.5875685855  MEMB      93              0.0000000000
     10628        93  SAPE      C11            30.1035326804      -33.7070685770       20.3546139832  MEMB      93              0.0000000000
     10629        93  SAPE      H11A           30.7491048588      -34.1381730362       21.1494136592  MEMB      93              0.0000000000
     10630        93  SAPE      H11B           30.5659593294      -34.1967044699       19.4710194411  MEMB      93              0.0000000000
     10631        93  SAPE      P              27.8432878531      -34.4105773363       19.4734309348  MEMB      93              0.0000000000
     10632        93  SAPE      O13            27.9514528461      -35.8779266094       19.2121691928  MEMB      93              0.0000000000
     10633        93  SAPE      O14            26.5000952188      -33.8532587065       19.8098875127  MEMB      93              0.0000000000
     10634        93  SAPE      O12            28.8157465972      -34.1070373318       20.7377755053  MEMB      93              0.0000000000
     10635        93  SAPE      O11            28.5127915767      -33.5961535340       18.3105196975  MEMB      93              0.0000000000
     10636        93  SAPE      C1             28.4719564575      -34.0148879693       16.9694051952  MEMB      93              0.0000000000
     10637        93  SAPE      HA             28.5182599687      -35.1181829220       16.8472689228  MEMB      93              0.0000000000
     10638        93  SAPE      HB             27.6814603557      -33.4768628401       16.4037500359  MEMB      93              0.0000000000
     10639        93  SAPE      C2             29.7942217236      -33.6425389450       16.2364137315  MEMB      93              0.0000000000
     10640        93  SAPE      HS             30.5776783315      -34.2092235960       16.7835749102  MEMB      93              0.0000000000
     10641        93  SAPE      O21            29.9747442486      -32.2046744926       16.4927083336  MEMB      93              0.0000000000
     10642        93  SAPE      C21            31.2440766010      -31.8192525990       16.2874725505  MEMB      93              0.0000000000
     10643        93  SAPE      O22            32.1699417768      -32.5145644838       15.9543735962  MEMB      93              0.0000000000
     10644        93  SAPE      C22            31.2095806626      -30.3151967600       16.5546194445  MEMB      93              0.0000000000
     10645        93  SAPE      H2R            30.9734389610      -30.1912430850       17.6331340538  MEMB      93              0.0000000000
     10646        93  SAPE      H2S            32.1255982502      -29.7243947198       16.3397118854  MEMB      93              0.0000000000
     10647        93  SAPE      C3             29.7373715898      -34.0123351027       14.7516748447  MEMB      93              0.0000000000
     10648        93  SAPE      HX             29.6310347149      -35.1124869263       14.8642779884  MEMB      93              0.0000000000
     10649        93  SAPE      HY             30.6346201595      -33.6564495274       14.2015735233  MEMB      93              0.0000000000
     10650        93  SAPE      O31            28.5727994962      -33.4701321921       14.1623649040  MEMB      93              0.0000000000
     10651        93  SAPE      C31            28.5203247028      -33.8055354001       12.8314854629  MEMB      93              0.0000000000
     10652        93  SAPE      O32            29.3891402371      -34.5462263094       12.2841259328  MEMB      93              0.0000000000
     10653        93  SAPE      C32            27.3644660877      -33.0990845689       12.1119563817  MEMB      93              0.0000000000
     10654        93  SAPE      H2X            27.8301999503      -32.3683285041       11.4166802769  MEMB      93              0.0000000000
     10655        93  SAPE      H2Y            26.7600564392      -32.5025440611       12.8283009148  MEMB      93              0.0000000000
     10656        93  SAPE      C23            30.0812769270      -29.6507438582       15.7268081441  MEMB      93              0.0000000000
     10657        93  SAPE      H3R            30.0239497106      -28.5666955771       15.9631855172  MEMB      93              0.0000000000
     10658        93  SAPE      H3S            29.1600341913      -30.1090026407       16.1458925983  MEMB      93              0.0000000000
     10659        93  SAPE      C24            30.1915801889      -29.7708809711       14.1876180315  MEMB      93              0.0000000000
     10660        93  SAPE      H4R            29.2750486085      -29.2193346288       13.8874714238  MEMB      93              0.0000000000
     10661        93  SAPE      H4S            30.1223051927      -30.8616298633       13.9881469459  MEMB      93              0.0000000000
     10662        93  SAPE      C25            31.5097954323      -29.1312818323       13.7049702730  MEMB      93              0.0000000000
     10663        93  SAPE      H5R            32.0703059064      -28.4567907447       14.3689658856  MEMB      93              0.0000000000
     10664        93  SAPE      C26            32.1200741276      -29.4084789958       12.5205995309  MEMB      93              0.0000000000
     10665        93  SAPE      H6R            33.1221690035      -29.0176590453       12.2902395246  MEMB      93              0.0000000000
     10666        93  SAPE      C27            31.6103920169      -30.3735378284       11.4340792665  MEMB      93              0.0000000000
     10667        93  SAPE      H7R            31.6460058982      -31.3967614070       11.8654338058  MEMB      93              0.0000000000
     10668        93  SAPE      H7S            32.4003578298      -30.5252149841       10.6677442809  MEMB      93              0.0000000000
     10669        93  SAPE      C28            30.2866561441      -30.1855985958       10.7993375523  MEMB      93              0.0000000000
     10670        93  SAPE      H8R            29.4718560778      -29.8806272560       11.4724593921  MEMB      93              0.0000000000
     10671        93  SAPE      C29            29.9693325476      -30.3730348918        9.5175636194  MEMB      93              0.0000000000
     10672        93  SAPE      H9R            28.9361493736      -30.1853730318        9.1899736223  MEMB      93              0.0000000000
     10673        93  SAPE      C210           30.8652781332      -30.7728256694        8.4360417496  MEMB      93              0.0000000000
     10674        93  SAPE      H10R           31.4367517484      -31.6099410680        8.8909884271  MEMB      93              0.0000000000
     10675        93  SAPE      H10S           31.6887231049      -30.0472405274        8.2634553022  MEMB      93              0.0000000000
     10676        93  SAPE      C211           30.3301930092      -31.1967474431        7.0697711887  MEMB      93              0.0000000000
     10677        93  SAPE      H11R           30.2400315010      -30.4119189782        6.3043195868  MEMB      93              0.0000000000
     10678        93  SAPE      C212           30.0898986862      -32.4570475259        6.5959373004  MEMB      93              0.0000000000
     10679        93  SAPE      H12R           29.6498302036      -32.5497033735        5.5920676222  MEMB      93              0.0000000000
     10680        93  SAPE      C213           30.3268254924      -33.7574687643        7.3336330189  MEMB      93              0.0000000000
     10681        93  SAPE      H13R           29.3731193929      -33.8538567967        7.8953054519  MEMB      93              0.0000000000
     10682        93  SAPE      H13S           31.0543587235      -33.5605692308        8.1498725523  MEMB      93              0.0000000000
     10683        93  SAPE      C214           30.6802185453      -34.9060561080        6.4731130985  MEMB      93              0.0000000000
     10684        93  SAPE      H14R           31.7459956517      -35.1759223024        6.5090501221  MEMB      93              0.0000000000
     10685        93  SAPE      C215           29.8503233719      -35.6938461543        5.7790712296  MEMB      93              0.0000000000
     10686        93  SAPE      H15R           30.2609789011      -36.4288394748        5.0711536447  MEMB      93              0.0000000000
     10687        93  SAPE      C216           28.3492120848      -35.4723262407        5.6661372858  MEMB      93              0.0000000000
     10688        93  SAPE      H16R           28.0057324290      -34.8444820008        6.5159330489  MEMB      93              0.0000000000
     10689        93  SAPE      H16S           27.9682463321      -36.5151687937        5.7069508500  MEMB      93              0.0000000000
     10690        93  SAPE      C217           27.8130978494      -34.7063073889        4.4231989265  MEMB      93              0.0000000000
     10691        93  SAPE      H17R           28.2457202403      -33.6830134682        4.4178668476  MEMB      93              0.0000000000
     10692        93  SAPE      H17S           26.7321371768      -34.5060962543        4.5836998262  MEMB      93              0.0000000000
     10693        93  SAPE      C218           28.2380510598      -35.1659103539        2.9853464744  MEMB      93              0.0000000000
     10694        93  SAPE      H18R           28.2077294506      -36.2640329890        3.1512618171  MEMB      93              0.0000000000
     10695        93  SAPE      H18S           29.2946236321      -34.9691543294        2.7038102302  MEMB      93              0.0000000000
     10696        93  SAPE      C219           27.3110278794      -34.7802530987        1.8875875424  MEMB      93              0.0000000000
     10697        93  SAPE      H19R           26.2708141010      -34.6850663869        2.2660248333  MEMB      93              0.0000000000
     10698        93  SAPE      H19S           27.3470743192      -35.4404800881        0.9947694223  MEMB      93              0.0000000000
     10699        93  SAPE      C220           27.5169485147      -33.3974198845        1.3681356583  MEMB      93              0.0000000000
     10700        93  SAPE      H20R           26.7829930782      -33.0015087381        0.6340481201  MEMB      93              0.0000000000
     10701        93  SAPE      H20S           28.5250166328      -33.4212607704        0.9017118437  MEMB      93              0.0000000000
     10702        93  SAPE      H20T           27.7170720337      -32.7009313716        2.2102607126  MEMB      93              0.0000000000
     10703        93  SAPE      C33            26.4926595378      -34.1341132023       11.2431991183  MEMB      93              0.0000000000
     10704        93  SAPE      H3X            26.2668095646      -34.9546657424       11.9573461300  MEMB      93              0.0000000000
     10705        93  SAPE      H3Y            27.1189924259      -34.6541775602       10.4871817332  MEMB      93              0.0000000000
     10706        93  SAPE      C34            25.3253329335      -33.5143446235       10.5268271251  MEMB      93              0.0000000000
     10707        93  SAPE      H4X            24.9370393038      -32.6628198226       11.1255368967  MEMB      93              0.0000000000
     10708        93  SAPE      H4Y            24.5124367186      -34.2590729046       10.3893469072  MEMB      93              0.0000000000
     10709        93  SAPE      C35            25.7608575780      -33.0206691429        9.0940331138  MEMB      93              0.0000000000
     10710        93  SAPE      H5X            25.4991175013      -33.7831713935        8.3295699948  MEMB      93              0.0000000000
     10711        93  SAPE      H5Y            26.8670748784      -32.9304852690        9.0443217342  MEMB      93              0.0000000000
     10712        93  SAPE      C36            25.2016120067      -31.7150262942        8.7248298715  MEMB      93              0.0000000000
     10713        93  SAPE      H6X            25.2475854255      -31.1514835318        9.6811912645  MEMB      93              0.0000000000
     10714        93  SAPE      H6Y            24.1474206802      -31.8518895976        8.4019213997  MEMB      93              0.0000000000
     10715        93  SAPE      C37            25.9900728489      -31.0643808786        7.6378949517  MEMB      93              0.0000000000
     10716        93  SAPE      H7X            27.0811081136      -31.0042894386        7.8387732143  MEMB      93              0.0000000000
     10717        93  SAPE      H7Y            25.7547302579      -29.9788805094        7.6129093844  MEMB      93              0.0000000000
     10718        93  SAPE      C38            25.7043565807      -31.5082145187        6.2180117580  MEMB      93              0.0000000000
     10719        93  SAPE      H8X            24.6568370939      -31.8413784209        6.0566867100  MEMB      93              0.0000000000
     10720        93  SAPE      H8Y            26.3506404181      -32.3950087864        6.0441329987  MEMB      93              0.0000000000
     10721        93  SAPE      C39            26.1262739309      -30.4334317886        5.1888143422  MEMB      93              0.0000000000
     10722        93  SAPE      H9X            25.7346307738      -29.4338651720        5.4748259913  MEMB      93              0.0000000000
     10723        93  SAPE      H9Y            25.6246270486      -30.7263613252        4.2417860002  MEMB      93              0.0000000000
     10724        93  SAPE      C310           27.6465276315      -30.5056677969        4.9464522361  MEMB      93              0.0000000000
     10725        93  SAPE      H10X           27.8999153421      -31.4747342769        4.4658002150  MEMB      93              0.0000000000
     10726        93  SAPE      H10Y           28.0648499414      -30.3638017747        5.9658641304  MEMB      93              0.0000000000
     10727        93  SAPE      C311           28.0422544530      -29.4445582944        3.8979424966  MEMB      93              0.0000000000
     10728        93  SAPE      H11X           28.2363310971      -28.4912054434        4.4343880586  MEMB      93              0.0000000000
     10729        93  SAPE      H11Y           27.1903246819      -29.4526400548        3.1848710040  MEMB      93              0.0000000000
     10730        93  SAPE      C312           29.2566845232      -29.7342284306        2.9139687384  MEMB      93              0.0000000000
     10731        93  SAPE      H12X           29.4348562412      -28.8490150561        2.2666867681  MEMB      93              0.0000000000
     10732        93  SAPE      H12Y           28.9349458688      -30.5628736911        2.2475205845  MEMB      93              0.0000000000
     10733        93  SAPE      C313           30.5906839561      -30.0677183136        3.6359693717  MEMB      93              0.0000000000
     10734        93  SAPE      H13X           30.4468574175      -31.1332969153        3.9155701323  MEMB      93              0.0000000000
     10735        93  SAPE      H13Y           30.8106803758      -29.5722002548        4.6057031081  MEMB      93              0.0000000000
     10736        93  SAPE      C314           31.9154676705      -29.7577371079        2.9303185682  MEMB      93              0.0000000000
     10737        93  SAPE      H14X           32.8054005833      -29.9186685910        3.5756405280  MEMB      93              0.0000000000
     10738        93  SAPE      H14Y           31.9446221821      -28.6474526825        2.9575184619  MEMB      93              0.0000000000
     10739        93  SAPE      C315           32.1463409325      -30.1213639461        1.4350841556  MEMB      93              0.0000000000
     10740        93  SAPE      H15X           33.1787515731      -29.7258213224        1.3255589852  MEMB      93              0.0000000000
     10741        93  SAPE      H15Y           31.4438061151      -29.5391892514        0.8011769409  MEMB      93              0.0000000000
     10742        93  SAPE      C316           32.2798901071      -31.5445520735        1.0475871870  MEMB      93              0.0000000000
     10743        93  SAPE      H16X           31.3939373330      -32.1821167544        1.2547584000  MEMB      93              0.0000000000
     10744        93  SAPE      H16Y           33.1376675875      -32.0545551803        1.5358855248  MEMB      93              0.0000000000
     10745        93  SAPE      C317           32.6307094034      -31.7527518531       -0.4502622831  MEMB      93              0.0000000000
     10746        93  SAPE      H17X           33.3149606436      -30.9580990684       -0.8172071493  MEMB      93              0.0000000000
     10747        93  SAPE      H17Y           31.6300607202      -31.5753303567       -0.8992003202  MEMB      93              0.0000000000
     10748        93  SAPE      C318           33.2501895672      -33.1697932050       -0.7387792272  MEMB      93              0.0000000000
     10749        93  SAPE      H18X           32.5154763824      -33.9742833699       -0.5212619036  MEMB      93              0.0000000000
     10750        93  SAPE      H18Y           34.1470970701      -33.3443573719       -0.1067934833  MEMB      93              0.0000000000
     10751        93  SAPE      H18Z           33.5857120397      -33.2536747707       -1.7945771808  MEMB      93              0.0000000000
     10752        94  SLPC      N             -31.2651700208       36.0079764990       19.0791065092  MEMB      94              0.0000000000
     10753        94  SLPC      C13           -30.2441158955       34.8797443223       19.2543441782  MEMB      94              0.0000000000
     10754        94  SLPC      H13A          -30.6464176588       34.0747150338       18.6572837370  MEMB      94              0.0000000000
     10755        94  SLPC      H13B          -29.3745276363       35.1773748369       18.6872177561  MEMB      94              0.0000000000
     10756        94  SLPC      H13C          -29.9960548800       34.5014733403       20.2350461964  MEMB      94              0.0000000000
     10757        94  SLPC      C14           -30.8256030094       37.1500089040       19.9299823280  MEMB      94              0.0000000000
     10758        94  SLPC      H14A          -30.9590043822       36.9841080966       20.9887933335  MEMB      94              0.0000000000
     10759        94  SLPC      H14B          -29.7632296655       37.2926948760       19.7980595132  MEMB      94              0.0000000000
     10760        94  SLPC      H14C          -31.3674117085       38.0619318917       19.7269061120  MEMB      94              0.0000000000
     10761        94  SLPC      C15           -32.6836593589       35.5553741854       19.4851196058  MEMB      94              0.0000000000
     10762        94  SLPC      H15A          -33.3217532579       36.4262194692       19.4557165774  MEMB      94              0.0000000000
     10763        94  SLPC      H15B          -33.0476341115       34.8316120162       18.7709130988  MEMB      94              0.0000000000
     10764        94  SLPC      H15C          -32.7232149813       35.1104568023       20.4684221415  MEMB      94              0.0000000000
     10765        94  SLPC      C12           -31.2323014783       36.6324199399       17.7019815342  MEMB      94              0.0000000000
     10766        94  SLPC      H12A          -30.1910273128       36.9050903033       17.6136699132  MEMB      94              0.0000000000
     10767        94  SLPC      H12B          -31.8032864863       37.5312571016       17.8821696528  MEMB      94              0.0000000000
     10768        94  SLPC      C11           -31.7695765774       35.9299241075       16.3678016001  MEMB      94              0.0000000000
     10769        94  SLPC      H11A          -31.5215217965       36.4859647481       15.4384961022  MEMB      94              0.0000000000
     10770        94  SLPC      H11B          -32.8718961403       35.8179706560       16.4495274479  MEMB      94              0.0000000000
     10771        94  SLPC      P             -31.6293063241       33.7835024304       14.9896575553  MEMB      94              0.0000000000
     10772        94  SLPC      O13           -31.6849188267       34.6599368892       13.8098104297  MEMB      94              0.0000000000
     10773        94  SLPC      O14           -30.7017527596       32.6394705991       14.9223479887  MEMB      94              0.0000000000
     10774        94  SLPC      O12           -31.2133171173       34.6537497066       16.2412978942  MEMB      94              0.0000000000
     10775        94  SLPC      O11           -33.0853811140       33.1926503838       15.2185503554  MEMB      94              0.0000000000
     10776        94  SLPC      C1            -33.3265762911       32.4203431657       16.3485792310  MEMB      94              0.0000000000
     10777        94  SLPC      HA            -32.8009731131       31.4456139563       16.2593300822  MEMB      94              0.0000000000
     10778        94  SLPC      HB            -32.8388222852       32.9108323226       17.2179683368  MEMB      94              0.0000000000
     10779        94  SLPC      C2            -34.8631257553       32.1101801138       16.4399823465  MEMB      94              0.0000000000
     10780        94  SLPC      HS            -34.9831109368       31.1494530026       16.9848930724  MEMB      94              0.0000000000
     10781        94  SLPC      O21           -35.6162518919       31.8992479894       15.2268251177  MEMB      94              0.0000000000
     10782        94  SLPC      C21           -35.1891369730       30.9607942181       14.3453621338  MEMB      94              0.0000000000
     10783        94  SLPC      O22           -34.2971822026       30.1372820817       14.5462673947  MEMB      94              0.0000000000
     10784        94  SLPC      C22           -36.0549264294       31.1078897717       13.0811567672  MEMB      94              0.0000000000
     10785        94  SLPC      H2R           -36.4152958488       30.1414833333       12.6682245704  MEMB      94              0.0000000000
     10786        94  SLPC      H2S           -36.9650812358       31.6802646589       13.3610244197  MEMB      94              0.0000000000
     10787        94  SLPC      C3            -35.6070762161       33.2837371313       17.2205718209  MEMB      94              0.0000000000
     10788        94  SLPC      HX            -35.2807222376       33.5090674637       18.2583773422  MEMB      94              0.0000000000
     10789        94  SLPC      HY            -36.6691500348       32.9598201341       17.2579623042  MEMB      94              0.0000000000
     10790        94  SLPC      O31           -35.5105925761       34.5738944432       16.5327306560  MEMB      94              0.0000000000
     10791        94  SLPC      C31           -36.5161447701       35.4009934823       16.7329328611  MEMB      94              0.0000000000
     10792        94  SLPC      O32           -37.5038508708       35.2663089194       17.3901028616  MEMB      94              0.0000000000
     10793        94  SLPC      C32           -36.2214876968       36.7392780374       15.8807907546  MEMB      94              0.0000000000
     10794        94  SLPC      H2X           -35.6343235661       37.4095142248       16.5443740934  MEMB      94              0.0000000000
     10795        94  SLPC      H2Y           -37.1000810986       37.3696672650       15.6258316871  MEMB      94              0.0000000000
     10796        94  SLPC      C23           -35.3174097694       31.9367260543       11.9854413166  MEMB      94              0.0000000000
     10797        94  SLPC      H3R           -34.3833637589       31.4178337281       11.6810900359  MEMB      94              0.0000000000
     10798        94  SLPC      H3S           -34.9863958198       32.9291206877       12.3594785781  MEMB      94              0.0000000000
     10799        94  SLPC      C24           -36.1849797362       32.0459861208       10.7061063191  MEMB      94              0.0000000000
     10800        94  SLPC      H4R           -37.2432646305       31.9272342384       11.0227321939  MEMB      94              0.0000000000
     10801        94  SLPC      H4S           -36.1430810746       31.2058743052        9.9803116086  MEMB      94              0.0000000000
     10802        94  SLPC      C25           -36.1283096463       33.3865145087       10.0320019805  MEMB      94              0.0000000000
     10803        94  SLPC      H5R           -35.4744371794       34.0916953698       10.5883219203  MEMB      94              0.0000000000
     10804        94  SLPC      H5S           -37.1339609764       33.8571145902       10.0710124609  MEMB      94              0.0000000000
     10805        94  SLPC      C26           -35.5301754395       33.4120243117        8.5646684313  MEMB      94              0.0000000000
     10806        94  SLPC      H6R           -34.4959906439       33.0079860786        8.6038594452  MEMB      94              0.0000000000
     10807        94  SLPC      H6S           -35.5692843381       34.4498083241        8.1699584567  MEMB      94              0.0000000000
     10808        94  SLPC      C27           -36.4326715065       32.6454875546        7.6193051274  MEMB      94              0.0000000000
     10809        94  SLPC      H7R           -36.4368165378       31.5677507161        7.8890961549  MEMB      94              0.0000000000
     10810        94  SLPC      H7S           -36.0460368941       32.7862150180        6.5873024467  MEMB      94              0.0000000000
     10811        94  SLPC      C28           -37.9232755098       33.2021945512        7.3409879587  MEMB      94              0.0000000000
     10812        94  SLPC      H8R           -37.8055642496       34.2784111364        7.0915427434  MEMB      94              0.0000000000
     10813        94  SLPC      H8S           -38.4602495850       33.2916235684        8.3094825685  MEMB      94              0.0000000000
     10814        94  SLPC      C29           -38.6632251094       32.2778691591        6.3909476909  MEMB      94              0.0000000000
     10815        94  SLPC      H9R           -38.8201885553       31.2452990609        6.7361455497  MEMB      94              0.0000000000
     10816        94  SLPC      C210          -39.1430331665       32.5569015226        5.1567182933  MEMB      94              0.0000000000
     10817        94  SLPC      H10R          -39.6980489633       31.8041986269        4.5775846967  MEMB      94              0.0000000000
     10818        94  SLPC      C211          -39.0054603278       33.9026987864        4.4924004254  MEMB      94              0.0000000000
     10819        94  SLPC      H11R          -39.0245921139       34.7214563066        5.2431280900  MEMB      94              0.0000000000
     10820        94  SLPC      H11S          -39.8935010386       33.9852700945        3.8299149872  MEMB      94              0.0000000000
     10821        94  SLPC      C212          -37.6606627735       34.1257519631        3.7884059521  MEMB      94              0.0000000000
     10822        94  SLPC      H12R          -37.1395976845       34.9674923184        4.2679521363  MEMB      94              0.0000000000
     10823        94  SLPC      C213          -37.1293947076       33.5048869645        2.6804032064  MEMB      94              0.0000000000
     10824        94  SLPC      H13R          -36.1563964458       33.7508473555        2.2300943231  MEMB      94              0.0000000000
     10825        94  SLPC      C214          -37.7010078525       32.3970296762        1.8806826540  MEMB      94              0.0000000000
     10826        94  SLPC      H14R          -38.3579214732       32.7557374667        1.0596382911  MEMB      94              0.0000000000
     10827        94  SLPC      H14S          -38.4599288050       31.8672332980        2.4952361588  MEMB      94              0.0000000000
     10828        94  SLPC      C215          -36.6203725195       31.4579149061        1.2628914634  MEMB      94              0.0000000000
     10829        94  SLPC      H15R          -35.9275540830       31.1411188866        2.0715707923  MEMB      94              0.0000000000
     10830        94  SLPC      H15S          -36.0167799113       32.1503818654        0.6380015561  MEMB      94              0.0000000000
     10831        94  SLPC      C216          -37.1539651890       30.2868533219        0.4090078273  MEMB      94              0.0000000000
     10832        94  SLPC      H16R          -37.6782128365       30.7481032314       -0.4551287579  MEMB      94              0.0000000000
     10833        94  SLPC      H16S          -37.8392973381       29.5937425726        0.9421483263  MEMB      94              0.0000000000
     10834        94  SLPC      C217          -36.1166652582       29.3894574265       -0.2565996725  MEMB      94              0.0000000000
     10835        94  SLPC      H17R          -35.3265268650       29.9177914097       -0.8318089039  MEMB      94              0.0000000000
     10836        94  SLPC      H17S          -36.5943776336       28.6000646665       -0.8754457889  MEMB      94              0.0000000000
     10837        94  SLPC      C218          -35.3451766496       28.5254434328        0.7850065153  MEMB      94              0.0000000000
     10838        94  SLPC      H18R          -34.6865968551       29.1352072935        1.4398232166  MEMB      94              0.0000000000
     10839        94  SLPC      H18S          -34.5865199990       27.8571937929        0.3243514734  MEMB      94              0.0000000000
     10840        94  SLPC      H18T          -36.0795900175       27.9499212660        1.3881091262  MEMB      94              0.0000000000
     10841        94  SLPC      C33           -35.5055239573       36.4086015394       14.5023241029  MEMB      94              0.0000000000
     10842        94  SLPC      H3X           -36.3200275824       35.8993912651       13.9441041508  MEMB      94              0.0000000000
     10843        94  SLPC      H3Y           -34.7620705672       35.6159529133       14.7332060128  MEMB      94              0.0000000000
     10844        94  SLPC      C34           -34.7615582876       37.5666776857       13.7978736319  MEMB      94              0.0000000000
     10845        94  SLPC      H4X           -33.8300673409       37.9221878462       14.2880352415  MEMB      94              0.0000000000
     10846        94  SLPC      H4Y           -35.4644886256       38.4267217569       13.8209853433  MEMB      94              0.0000000000
     10847        94  SLPC      C35           -34.5539809594       37.2224122888       12.2898385371  MEMB      94              0.0000000000
     10848        94  SLPC      H5X           -35.4943273767       37.1809440628       11.6996267183  MEMB      94              0.0000000000
     10849        94  SLPC      H5Y           -34.1696255162       36.1818274945       12.2283988621  MEMB      94              0.0000000000
     10850        94  SLPC      C36           -33.4525779613       38.0532462460       11.6429276823  MEMB      94              0.0000000000
     10851        94  SLPC      H6X           -32.4651344687       37.7406145045       12.0448456756  MEMB      94              0.0000000000
     10852        94  SLPC      H6Y           -33.5763205166       39.1038764300       11.9823163652  MEMB      94              0.0000000000
     10853        94  SLPC      C37           -33.2256577528       37.8535735359       10.1624716027  MEMB      94              0.0000000000
     10854        94  SLPC      H7X           -32.2845619303       38.3333660105        9.8182930119  MEMB      94              0.0000000000
     10855        94  SLPC      H7Y           -34.0296587528       38.4338253569        9.6612621853  MEMB      94              0.0000000000
     10856        94  SLPC      C38           -33.0315438268       36.3399478384        9.7329322837  MEMB      94              0.0000000000
     10857        94  SLPC      H8X           -32.8811050540       36.2239404416        8.6382947626  MEMB      94              0.0000000000
     10858        94  SLPC      H8Y           -34.0494565043       35.9703506698        9.9810703278  MEMB      94              0.0000000000
     10859        94  SLPC      C39           -31.8697224099       35.6784244414       10.5078377380  MEMB      94              0.0000000000
     10860        94  SLPC      H9X           -32.4114526226       35.0151264842       11.2155701566  MEMB      94              0.0000000000
     10861        94  SLPC      H9Y           -31.1898343612       36.3973498493       11.0130308750  MEMB      94              0.0000000000
     10862        94  SLPC      C310          -30.9548885774       34.8430302916        9.6000491879  MEMB      94              0.0000000000
     10863        94  SLPC      H10X          -30.1674585558       34.3889250223       10.2388476749  MEMB      94              0.0000000000
     10864        94  SLPC      H10Y          -30.3232870733       35.4984530374        8.9630080934  MEMB      94              0.0000000000
     10865        94  SLPC      C311          -31.5724358066       33.8894759589        8.5790461345  MEMB      94              0.0000000000
     10866        94  SLPC      H11X          -31.8122588670       34.4544691463        7.6529855061  MEMB      94              0.0000000000
     10867        94  SLPC      H11Y          -32.4118186966       33.4036164874        9.1209850804  MEMB      94              0.0000000000
     10868        94  SLPC      C312          -30.6257163599       32.7176015810        8.0562505854  MEMB      94              0.0000000000
     10869        94  SLPC      H12X          -30.1202075676       32.3152178320        8.9600583102  MEMB      94              0.0000000000
     10870        94  SLPC      H12Y          -29.8176957232       33.1572685557        7.4332606726  MEMB      94              0.0000000000
     10871        94  SLPC      C313          -31.3310250944       31.6551015811        7.1252619743  MEMB      94              0.0000000000
     10872        94  SLPC      H13X          -31.8005938283       30.8675125607        7.7525810742  MEMB      94              0.0000000000
     10873        94  SLPC      H13Y          -30.5868960392       31.0946714903        6.5198600487  MEMB      94              0.0000000000
     10874        94  SLPC      C314          -32.3862562019       32.2700787262        6.2050845453  MEMB      94              0.0000000000
     10875        94  SLPC      H14X          -31.7869125777       33.0245256933        5.6519861945  MEMB      94              0.0000000000
     10876        94  SLPC      H14Y          -33.0722444291       32.7833392310        6.9124068867  MEMB      94              0.0000000000
     10877        94  SLPC      C315          -33.1194986020       31.3669036669        5.1293055979  MEMB      94              0.0000000000
     10878        94  SLPC      H15X          -33.8688492388       32.1061785813        4.7739645268  MEMB      94              0.0000000000
     10879        94  SLPC      H15Y          -33.5773357585       30.5630018243        5.7444866390  MEMB      94              0.0000000000
     10880        94  SLPC      C316          -32.2320135252       30.8020659315        4.0144582050  MEMB      94              0.0000000000
     10881        94  SLPC      H16X          -32.8027865784       30.0145627057        3.4774498296  MEMB      94              0.0000000000
     10882        94  SLPC      H16Y          -31.2459835065       30.3871776631        4.3143468421  MEMB      94              0.0000000000
     10883        94  SLPC      C317          -31.9813954602       31.8968225202        2.9663456309  MEMB      94              0.0000000000
     10884        94  SLPC      H17X          -31.1042436923       31.5041546860        2.4089067033  MEMB      94              0.0000000000
     10885        94  SLPC      H17Y          -31.5406807102       32.8167953596        3.4065059927  MEMB      94              0.0000000000
     10886        94  SLPC      C318          -33.0078125103       32.1967963812        1.8659429078  MEMB      94              0.0000000000
     10887        94  SLPC      H18X          -33.9785898836       32.5492195911        2.2754675518  MEMB      94              0.0000000000
     10888        94  SLPC      H18Y          -33.2392675284       31.2401664804        1.3505708918  MEMB      94              0.0000000000
     10889        94  SLPC      H18Z          -32.6650269658       32.7830447750        0.9866636021  MEMB      94              0.0000000000
     10890        95  SAPC      N              34.7076113454       31.8955481828       18.3466630884  MEMB      95              0.0000000000
     10891        95  SAPC      C12            33.3223196460       31.5676503420       18.9934254661  MEMB      95              0.0000000000
     10892        95  SAPC      H12A           33.1931039002       30.5042306641       19.1306919655  MEMB      95              0.0000000000
     10893        95  SAPC      H12B           32.5570448827       31.8487405080       18.2850872505  MEMB      95              0.0000000000
     10894        95  SAPC      C13            34.6869962520       33.3450476897       17.9948988009  MEMB      95              0.0000000000
     10895        95  SAPC      H13A           35.6818925554       33.5856688583       17.6503950962  MEMB      95              0.0000000000
     10896        95  SAPC      H13B           33.9754005420       33.4472119309       17.1889248869  MEMB      95              0.0000000000
     10897        95  SAPC      H13C           34.5130804204       33.8743662877       18.9200881232  MEMB      95              0.0000000000
     10898        95  SAPC      C14            35.8079775628       31.5703821587       19.2916481312  MEMB      95              0.0000000000
     10899        95  SAPC      H14A           35.6194069160       30.5690041389       19.6495352963  MEMB      95              0.0000000000
     10900        95  SAPC      H14B           36.7439255283       31.6945566502       18.7672608517  MEMB      95              0.0000000000
     10901        95  SAPC      H14C           35.8998053841       32.3613090435       20.0213072996  MEMB      95              0.0000000000
     10902        95  SAPC      C15            34.8281355192       31.0012530370       17.0886390147  MEMB      95              0.0000000000
     10903        95  SAPC      H15A           34.0031974173       31.1314444035       16.4038565126  MEMB      95              0.0000000000
     10904        95  SAPC      H15B           35.7578910767       31.3099033189       16.6340080582  MEMB      95              0.0000000000
     10905        95  SAPC      H15C           34.8714675520       29.9445627382       17.3075636567  MEMB      95              0.0000000000
     10906        95  SAPC      C11            32.9600007628       32.2755736918       20.4139690252  MEMB      95              0.0000000000
     10907        95  SAPC      H11A           33.8196420315       31.9606501488       21.0433823107  MEMB      95              0.0000000000
     10908        95  SAPC      H11B           32.0426606073       31.6991375224       20.6599961333  MEMB      95              0.0000000000
     10909        95  SAPC      P              32.3007206855       34.3727120606       21.6574223789  MEMB      95              0.0000000000
     10910        95  SAPC      O13            31.5583092745       33.3763246181       22.4570582644  MEMB      95              0.0000000000
     10911        95  SAPC      O14            33.4504872911       34.8420198575       22.2974486483  MEMB      95              0.0000000000
     10912        95  SAPC      O12            32.8305059228       33.6998718703       20.2186805645  MEMB      95              0.0000000000
     10913        95  SAPC      O11            31.3945169328       35.5503709892       21.2401466616  MEMB      95              0.0000000000
     10914        95  SAPC      C1             31.9352624994       36.5525927349       20.3093708533  MEMB      95              0.0000000000
     10915        95  SAPC      HA             31.9411305355       37.5376184841       20.8231906050  MEMB      95              0.0000000000
     10916        95  SAPC      HB             33.0059503546       36.3510396652       20.0918278558  MEMB      95              0.0000000000
     10917        95  SAPC      C2             31.2283637466       36.5214726422       18.9447273024  MEMB      95              0.0000000000
     10918        95  SAPC      HS             30.2417314510       37.0042655698       19.1114274822  MEMB      95              0.0000000000
     10919        95  SAPC      O21            31.0048171037       35.1430158064       18.4751030915  MEMB      95              0.0000000000
     10920        95  SAPC      C21            29.7361776453       34.6940382854       18.3715336604  MEMB      95              0.0000000000
     10921        95  SAPC      O22            28.7539651525       35.2325693470       18.7813772979  MEMB      95              0.0000000000
     10922        95  SAPC      C22            29.6831316687       33.3858265984       17.4821440643  MEMB      95              0.0000000000
     10923        95  SAPC      H2R            30.6558516325       32.8492823546       17.4981734298  MEMB      95              0.0000000000
     10924        95  SAPC      H2S            28.9202683754       32.7116476544       17.9269399880  MEMB      95              0.0000000000
     10925        95  SAPC      C3             31.9566802007       37.3208696474       17.8131999029  MEMB      95              0.0000000000
     10926        95  SAPC      HX             32.5708545244       38.1447747911       18.2354455107  MEMB      95              0.0000000000
     10927        95  SAPC      HY             31.1993088596       37.6884359426       17.0882138375  MEMB      95              0.0000000000
     10928        95  SAPC      O31            32.8139307369       36.4035706065       17.1500861527  MEMB      95              0.0000000000
     10929        95  SAPC      C31            33.3803781332       36.8985777980       16.0563638671  MEMB      95              0.0000000000
     10930        95  SAPC      O32            33.3346319116       38.0194756242       15.5655342818  MEMB      95              0.0000000000
     10931        95  SAPC      C32            34.2295925502       35.7852857806       15.3808774735  MEMB      95              0.0000000000
     10932        95  SAPC      H2X            33.5110818028       35.0787260880       14.9130780244  MEMB      95              0.0000000000
     10933        95  SAPC      H2Y            34.9389857654       35.3479395355       16.1155955416  MEMB      95              0.0000000000
     10934        95  SAPC      C23            29.5440549632       33.6814004141       16.0061057366  MEMB      95              0.0000000000
     10935        95  SAPC      H3R            30.1934984548       34.5778881741       15.9120109963  MEMB      95              0.0000000000
     10936        95  SAPC      H3S            28.5175923112       33.9867032796       15.7103261969  MEMB      95              0.0000000000
     10937        95  SAPC      C24            29.9131416805       32.4646368626       15.1317290913  MEMB      95              0.0000000000
     10938        95  SAPC      H4R            29.3091533284       32.4880092225       14.1995418015  MEMB      95              0.0000000000
     10939        95  SAPC      H4S            29.5677116814       31.5704552050       15.6933679802  MEMB      95              0.0000000000
     10940        95  SAPC      C25            31.3852304569       32.3370152714       14.7457500645  MEMB      95              0.0000000000
     10941        95  SAPC      H5R            32.1730257873       32.2890543548       15.5119607308  MEMB      95              0.0000000000
     10942        95  SAPC      C26            31.9075660236       32.2081101767       13.5377880513  MEMB      95              0.0000000000
     10943        95  SAPC      H6R            32.9911379929       32.0568314829       13.4238297157  MEMB      95              0.0000000000
     10944        95  SAPC      C27            31.0583195492       32.2126056432       12.2670257351  MEMB      95              0.0000000000
     10945        95  SAPC      H7R            30.8055672921       33.1651897756       11.7541704137  MEMB      95              0.0000000000
     10946        95  SAPC      H7S            30.1122842498       31.6686985057       12.4756000548  MEMB      95              0.0000000000
     10947        95  SAPC      C28            31.6471543129       31.3970430454       11.0830395467  MEMB      95              0.0000000000
     10948        95  SAPC      H8R            32.7214116704       31.2170661945       11.2365960843  MEMB      95              0.0000000000
     10949        95  SAPC      C29            30.9743449070       31.0113164253       10.0050223763  MEMB      95              0.0000000000
     10950        95  SAPC      H9R            31.5501999249       30.5471073725        9.1908348617  MEMB      95              0.0000000000
     10951        95  SAPC      C210           29.5289769273       31.3245459681        9.7376051976  MEMB      95              0.0000000000
     10952        95  SAPC      H10R           28.9905339927       31.1792575516       10.6984863801  MEMB      95              0.0000000000
     10953        95  SAPC      H10S           29.0077016302       30.6818954923        8.9962600205  MEMB      95              0.0000000000
     10954        95  SAPC      C211           29.3285482971       32.7605562001        9.1760735702  MEMB      95              0.0000000000
     10955        95  SAPC      H11R           29.3922340369       33.5892022271        9.8966905757  MEMB      95              0.0000000000
     10956        95  SAPC      C212           29.1615694422       33.1991354703        7.8790765377  MEMB      95              0.0000000000
     10957        95  SAPC      H12R           29.1689161228       34.2890421929        7.7305860476  MEMB      95              0.0000000000
     10958        95  SAPC      C213           29.1808803771       32.3050237221        6.6815800210  MEMB      95              0.0000000000
     10959        95  SAPC      H13R           28.1422398354       31.9204260420        6.5942228802  MEMB      95              0.0000000000
     10960        95  SAPC      H13S           29.7585474778       31.3662050504        6.8202943344  MEMB      95              0.0000000000
     10961        95  SAPC      C214           29.5928704192       32.9814995718        5.4109140827  MEMB      95              0.0000000000
     10962        95  SAPC      H14R           28.8216524562       33.7146047377        5.1320239649  MEMB      95              0.0000000000
     10963        95  SAPC      C215           30.7149313286       32.7760125155        4.6104504658  MEMB      95              0.0000000000
     10964        95  SAPC      H15R           30.9486463102       33.3297023191        3.6891448392  MEMB      95              0.0000000000
     10965        95  SAPC      C216           31.7993405801       31.6981497014        4.9101874902  MEMB      95              0.0000000000
     10966        95  SAPC      H16R           31.2559539006       30.7303442962        4.8611496281  MEMB      95              0.0000000000
     10967        95  SAPC      H16S           32.2553213151       31.7947072401        5.9186908430  MEMB      95              0.0000000000
     10968        95  SAPC      C217           32.9220871423       31.6149234196        3.8167853566  MEMB      95              0.0000000000
     10969        95  SAPC      H17R           33.4387419252       30.6595740517        4.0506582612  MEMB      95              0.0000000000
     10970        95  SAPC      H17S           33.5932953281       32.5002053543        3.8255226492  MEMB      95              0.0000000000
     10971        95  SAPC      C218           32.3990193696       31.3931506028        2.3772307456  MEMB      95              0.0000000000
     10972        95  SAPC      H18R           31.8103019052       32.2432737836        1.9710001293  MEMB      95              0.0000000000
     10973        95  SAPC      H18S           31.7123326670       30.5203113247        2.4077892370  MEMB      95              0.0000000000
     10974        95  SAPC      C219           33.4569103946       31.1028210631        1.3081642909  MEMB      95              0.0000000000
     10975        95  SAPC      H19R           32.8805729074       30.6906980953        0.4524128189  MEMB      95              0.0000000000
     10976        95  SAPC      H19S           34.2129336646       30.3911930029        1.7035582911  MEMB      95              0.0000000000
     10977        95  SAPC      C220           34.1229515609       32.4276183196        0.8278807955  MEMB      95              0.0000000000
     10978        95  SAPC      H20R           34.5121929901       32.1793417153       -0.1826497743  MEMB      95              0.0000000000
     10979        95  SAPC      H20S           35.0207617834       32.8578045666        1.3210316957  MEMB      95              0.0000000000
     10980        95  SAPC      H20T           33.3077389387       33.1754476007        0.7254074941  MEMB      95              0.0000000000
     10981        95  SAPC      C33            35.0917709304       36.3348676128       14.1384825011  MEMB      95              0.0000000000
     10982        95  SAPC      H3X            36.1076115957       36.3665037210       14.5872456151  MEMB      95              0.0000000000
     10983        95  SAPC      H3Y            34.7144848848       37.2952805727       13.7266776929  MEMB      95              0.0000000000
     10984        95  SAPC      C34            35.1711774422       35.2760465702       13.0495198934  MEMB      95              0.0000000000
     10985        95  SAPC      H4X            34.1531214201       34.8964513067       12.8175917484  MEMB      95              0.0000000000
     10986        95  SAPC      H4Y            35.6127661569       34.4600002144       13.6605754102  MEMB      95              0.0000000000
     10987        95  SAPC      C35            36.0753817101       35.7269113855       11.8215534064  MEMB      95              0.0000000000
     10988        95  SAPC      H5X            37.1436266283       35.6380069799       12.1135634427  MEMB      95              0.0000000000
     10989        95  SAPC      H5Y            35.8553046003       36.8149705724       11.7766769374  MEMB      95              0.0000000000
     10990        95  SAPC      C36            35.9511175339       34.9468622053       10.4625654197  MEMB      95              0.0000000000
     10991        95  SAPC      H6X            36.2711596305       33.8892268196       10.3472341114  MEMB      95              0.0000000000
     10992        95  SAPC      H6Y            36.5879466078       35.5606718096        9.7902515059  MEMB      95              0.0000000000
     10993        95  SAPC      C37            34.5485437977       35.2097546879        9.8926922867  MEMB      95              0.0000000000
     10994        95  SAPC      H7X            34.4491852490       36.3152841484        9.8452223636  MEMB      95              0.0000000000
     10995        95  SAPC      H7Y            33.6780679844       34.8958448302       10.5075534860  MEMB      95              0.0000000000
     10996        95  SAPC      C38            34.3204979550       34.7578498105        8.4258752457  MEMB      95              0.0000000000
     10997        95  SAPC      H8X            34.5829844892       33.6783072882        8.4289956812  MEMB      95              0.0000000000
     10998        95  SAPC      H8Y            34.9494771802       35.3744615331        7.7487516084  MEMB      95              0.0000000000
     10999        95  SAPC      C39            32.8753860538       34.9752845878        7.9997097644  MEMB      95              0.0000000000
     11000        95  SAPC      H9X            32.2687766111       34.2862155578        8.6254339801  MEMB      95              0.0000000000
     11001        95  SAPC      H9Y            32.8555059131       34.5203830314        6.9863042642  MEMB      95              0.0000000000
     11002        95  SAPC      C310           32.3486514078       36.3776566758        7.8561623963  MEMB      95              0.0000000000
     11003        95  SAPC      H10X           33.0906015612       36.8944919001        7.2106297548  MEMB      95              0.0000000000
     11004        95  SAPC      H10Y           32.4886781661       36.7377350834        8.8978224634  MEMB      95              0.0000000000
     11005        95  SAPC      C311           30.9280772891       36.5875853812        7.3601403674  MEMB      95              0.0000000000
     11006        95  SAPC      H11X           30.8039131139       37.6916194253        7.3637370233  MEMB      95              0.0000000000
     11007        95  SAPC      H11Y           30.1988218491       36.1060315180        8.0461531975  MEMB      95              0.0000000000
     11008        95  SAPC      C312           30.6976273807       36.0998489510        5.9320818972  MEMB      95              0.0000000000
     11009        95  SAPC      H12X           29.6680963321       35.6905654092        5.8491749973  MEMB      95              0.0000000000
     11010        95  SAPC      H12Y           31.3638578986       35.2358540898        5.7223896352  MEMB      95              0.0000000000
     11011        95  SAPC      C313           30.8492672682       37.2102871668        4.8707565608  MEMB      95              0.0000000000
     11012        95  SAPC      H13X           30.2370130739       38.0494162498        5.2648739689  MEMB      95              0.0000000000
     11013        95  SAPC      H13Y           30.4857522363       36.7124865411        3.9464333137  MEMB      95              0.0000000000
     11014        95  SAPC      C314           32.3401147749       37.7552081608        4.6796202038  MEMB      95              0.0000000000
     11015        95  SAPC      H14X           32.5431790722       38.3788728573        5.5763519436  MEMB      95              0.0000000000
     11016        95  SAPC      H14Y           32.2054446309       38.6055413536        3.9773958888  MEMB      95              0.0000000000
     11017        95  SAPC      C315           33.4679047219       36.7222663280        4.3875399885  MEMB      95              0.0000000000
     11018        95  SAPC      H15X           33.6317993421       36.0578055331        5.2627270622  MEMB      95              0.0000000000
     11019        95  SAPC      H15Y           34.3995165876       37.3144559600        4.2621135842  MEMB      95              0.0000000000
     11020        95  SAPC      C316           33.2934813006       35.8396324716        3.1292635525  MEMB      95              0.0000000000
     11021        95  SAPC      H16X           32.3725665728       35.2348496156        3.2723533828  MEMB      95              0.0000000000
     11022        95  SAPC      H16Y           34.1271314190       35.1184490624        3.2679843136  MEMB      95              0.0000000000
     11023        95  SAPC      C317           33.4403635247       36.6515728311        1.7790502485  MEMB      95              0.0000000000
     11024        95  SAPC      H17X           34.0591624598       36.0710814654        1.0618073647  MEMB      95              0.0000000000
     11025        95  SAPC      H17Y           33.8284017352       37.6810831442        1.9335061660  MEMB      95              0.0000000000
     11026        95  SAPC      C318           32.0860371997       36.8885915356        1.0992314416  MEMB      95              0.0000000000
     11027        95  SAPC      H18X           31.3464862315       37.1747026147        1.8773878593  MEMB      95              0.0000000000
     11028        95  SAPC      H18Y           31.6677785123       36.0540679460        0.4967787289  MEMB      95              0.0000000000
     11029        95  SAPC      H18Z           32.2836904945       37.7685164473        0.4503968577  MEMB      95              0.0000000000
     11030        96  OSM       N              34.8907749280      -27.4946700824       20.4274887148  MEMB      96              0.0000000000
     11031        96  OSM       C15            34.0114780332      -26.2933378244       20.6431148338  MEMB      96              0.0000000000
     11032        96  OSM       H15A           34.3685898415      -25.4963074622       20.0078088254  MEMB      96              0.0000000000
     11033        96  OSM       H15B           34.0145473174      -26.0728364636       21.7003611739  MEMB      96              0.0000000000
     11034        96  OSM       H15C           33.0430747523      -26.5234147922       20.2239970424  MEMB      96              0.0000000000
     11035        96  OSM       C14            34.9643475880      -27.9521842886       18.9834617219  MEMB      96              0.0000000000
     11036        96  OSM       H14A           35.8685292330      -28.5148964465       18.8039885489  MEMB      96              0.0000000000
     11037        96  OSM       H14B           35.0473206364      -27.0387055052       18.4133108376  MEMB      96              0.0000000000
     11038        96  OSM       H14C           34.1195248952      -28.5316583828       18.6415783391  MEMB      96              0.0000000000
     11039        96  OSM       C13            36.2432214996      -27.0244753664       20.8920645540  MEMB      96              0.0000000000
     11040        96  OSM       H13A           36.2042215352      -26.8582396979       21.9584812729  MEMB      96              0.0000000000
     11041        96  OSM       H13B           36.3743784895      -26.0469110038       20.4521038660  MEMB      96              0.0000000000
     11042        96  OSM       H13C           36.9925239208      -27.7361552419       20.5782846334  MEMB      96              0.0000000000
     11043        96  OSM       C12            34.3096678760      -28.5940918564       21.2921457392  MEMB      96              0.0000000000
     11044        96  OSM       H12A           33.2595035645      -28.8128298033       21.1668117613  MEMB      96              0.0000000000
     11045        96  OSM       H12B           34.2755077591      -28.1052256763       22.2545609059  MEMB      96              0.0000000000
     11046        96  OSM       C11            35.1080698988      -29.9612211448       21.3542507587  MEMB      96              0.0000000000
     11047        96  OSM       H11A           35.1413462231      -30.4673358859       20.3657865047  MEMB      96              0.0000000000
     11048        96  OSM       H11B           34.4626595473      -30.5760053886       22.0174299691  MEMB      96              0.0000000000
     11049        96  OSM       P              37.7472437640      -30.3626398405       21.5604251338  MEMB      96              0.0000000000
     11050        96  OSM       O13            38.8217014414      -29.9388014232       22.4975045307  MEMB      96              0.0000000000
     11051        96  OSM       O14            37.6813064005      -31.7747659120       21.1667798654  MEMB      96              0.0000000000
     11052        96  OSM       O11            37.9981628824      -29.4885873731       20.1667363954  MEMB      96              0.0000000000
     11053        96  OSM       O12            36.3123400756      -29.8191871731       22.0160277472  MEMB      96              0.0000000000
     11054        96  OSM       C1S            39.1478469110      -30.0281276797       19.4042258831  MEMB      96              0.0000000000
     11055        96  OSM       H1S            38.8972952576      -31.1021416995       19.2699166203  MEMB      96              0.0000000000
     11056        96  OSM       H1T            40.0683909595      -30.0248534484       20.0262455908  MEMB      96              0.0000000000
     11057        96  OSM       NF             40.2536497331      -30.2363391403       17.2762075800  MEMB      96              0.0000000000
     11058        96  OSM       HNF            41.2471107985      -30.2219651114       17.3588959994  MEMB      96              0.0000000000
     11059        96  OSM       C2S            39.3561083292      -29.3288176346       18.0150770737  MEMB      96              0.0000000000
     11060        96  OSM       H2S            38.4121194651      -29.2047320571       17.4425311983  MEMB      96              0.0000000000
     11061        96  OSM       C3S            40.0513359808      -27.9835722259       18.2796100096  MEMB      96              0.0000000000
     11062        96  OSM       H3S            41.0218987200      -28.3656505025       18.6621612159  MEMB      96              0.0000000000
     11063        96  OSM       O3             39.2850164080      -27.1145064377       19.1205816317  MEMB      96              0.0000000000
     11064        96  OSM       HO3            38.6881139846      -27.6020537787       19.6929495382  MEMB      96              0.0000000000
     11065        96  OSM       C4S            40.3499182077      -27.2960275658       16.9729423729  MEMB      96              0.0000000000
     11066        96  OSM       H4S            41.4058175173      -27.3385305928       16.6675405306  MEMB      96              0.0000000000
     11067        96  OSM       C5S            39.4872126694      -26.6997884324       16.1790455479  MEMB      96              0.0000000000
     11068        96  OSM       H5S            38.4061297347      -26.7473769230       16.3765176266  MEMB      96              0.0000000000
     11069        96  OSM       C6S            39.8241893074      -26.0235852312       14.8669997874  MEMB      96              0.0000000000
     11070        96  OSM       H6S            40.9346456564      -25.9969548201       14.8446658350  MEMB      96              0.0000000000
     11071        96  OSM       H6T            39.4820225561      -24.9692497627       14.7920372027  MEMB      96              0.0000000000
     11072        96  OSM       C7S            39.4707338066      -26.8765679982       13.5651879470  MEMB      96              0.0000000000
     11073        96  OSM       H7S            38.4018436417      -26.6846062587       13.3307833840  MEMB      96              0.0000000000
     11074        96  OSM       H7T            39.6117750530      -27.9605547030       13.7636856047  MEMB      96              0.0000000000
     11075        96  OSM       C8S            40.5676527864      -26.7197155883       12.4118713170  MEMB      96              0.0000000000
     11076        96  OSM       H8S            41.5312916373      -27.0674630122       12.8417468567  MEMB      96              0.0000000000
     11077        96  OSM       H8T            40.7702254231      -25.6391615928       12.2515949628  MEMB      96              0.0000000000
     11078        96  OSM       C9S            40.1582019704      -27.5213458991       11.1978919897  MEMB      96              0.0000000000
     11079        96  OSM       H9S            39.5626247399      -28.4318466187       11.4228304713  MEMB      96              0.0000000000
     11080        96  OSM       H9T            41.0576159090      -27.7748503049       10.5969668856  MEMB      96              0.0000000000
     11081        96  OSM       C10S           39.2778569096      -26.6259144446       10.2308978684  MEMB      96              0.0000000000
     11082        96  OSM       H10S           39.9503111176      -25.8176872004        9.8718785377  MEMB      96              0.0000000000
     11083        96  OSM       H10T           38.3976599209      -26.2039085668       10.7614494600  MEMB      96              0.0000000000
     11084        96  OSM       C11S           38.8424060575      -27.3762147860        9.0194733413  MEMB      96              0.0000000000
     11085        96  OSM       H11S           37.9906591358      -28.0117014683        9.3435183012  MEMB      96              0.0000000000
     11086        96  OSM       H11T           39.5744767983      -28.1081385381        8.6161368235  MEMB      96              0.0000000000
     11087        96  OSM       C12S           38.2026339693      -26.6239710402        7.9356610673  MEMB      96              0.0000000000
     11088        96  OSM       H12S           39.0523173266      -26.1465928569        7.4023044225  MEMB      96              0.0000000000
     11089        96  OSM       H12T           37.5411080979      -25.7995669458        8.2778049711  MEMB      96              0.0000000000
     11090        96  OSM       C13S           37.3338175671      -27.4549665648        6.9352336754  MEMB      96              0.0000000000
     11091        96  OSM       H13S           36.8227144190      -26.6917369929        6.3102728817  MEMB      96              0.0000000000
     11092        96  OSM       H13T           36.5641145803      -27.8864796822        7.6102702650  MEMB      96              0.0000000000
     11093        96  OSM       C14S           37.9565813388      -28.5056913625        6.0331132689  MEMB      96              0.0000000000
     11094        96  OSM       H14S           37.3028885530      -28.9186444338        5.2353178973  MEMB      96              0.0000000000
     11095        96  OSM       H14T           38.1652866953      -29.3025752611        6.7785923200  MEMB      96              0.0000000000
     11096        96  OSM       C15S           39.2637390714      -28.0350538717        5.3759779492  MEMB      96              0.0000000000
     11097        96  OSM       H15S           39.7577503810      -28.7533744449        4.6872916624  MEMB      96              0.0000000000
     11098        96  OSM       H15T           40.0486331749      -27.8714411291        6.1450641147  MEMB      96              0.0000000000
     11099        96  OSM       C16S           39.1230139129      -26.7561076785        4.5797629590  MEMB      96              0.0000000000
     11100        96  OSM       H16S           40.1130347539      -26.5528990995        4.1183670357  MEMB      96              0.0000000000
     11101        96  OSM       H16T           38.8302833751      -25.8533483833        5.1573922237  MEMB      96              0.0000000000
     11102        96  OSM       C17S           37.9624774565      -26.6113903892        3.5452846871  MEMB      96              0.0000000000
     11103        96  OSM       H17S           38.1167086807      -25.5992331199        3.1139231800  MEMB      96              0.0000000000
     11104        96  OSM       H17T           36.9959789039      -26.5991564798        4.0930545084  MEMB      96              0.0000000000
     11105        96  OSM       C18S           37.8247553739      -27.5747413109        2.3940832850  MEMB      96              0.0000000000
     11106        96  OSM       H18S           37.4700084640      -28.5573447289        2.7721918669  MEMB      96              0.0000000000
     11107        96  OSM       H18T           38.7792467361      -27.5264106066        1.8275757625  MEMB      96              0.0000000000
     11108        96  OSM       H18U           37.0244641958      -27.1688483652        1.7390217483  MEMB      96              0.0000000000
     11109        96  OSM       C1F            39.7963975760      -31.2424462225       16.5367363248  MEMB      96              0.0000000000
     11110        96  OSM       OF             38.6905021571      -31.6941103276       16.5778206405  MEMB      96              0.0000000000
     11111        96  OSM       C2F            40.8273530505      -31.8626779404       15.6967787423  MEMB      96              0.0000000000
     11112        96  OSM       H2F            40.8903688247      -32.9609379779       15.8522611343  MEMB      96              0.0000000000
     11113        96  OSM       H2G            41.8274316832      -31.4505738052       15.9504211393  MEMB      96              0.0000000000
     11114        96  OSM       C3F            40.5045448841      -31.5273732280       14.1993704431  MEMB      96              0.0000000000
     11115        96  OSM       H3F            40.3931867257      -30.4348488914       14.0311121935  MEMB      96              0.0000000000
     11116        96  OSM       H3G            39.5113502253      -31.9316355808       13.9087552674  MEMB      96              0.0000000000
     11117        96  OSM       C4F            41.6295779460      -31.9466393351       13.2458648841  MEMB      96              0.0000000000
     11118        96  OSM       H4F            41.7528437386      -33.0499865568       13.2040187454  MEMB      96              0.0000000000
     11119        96  OSM       H4G            42.5124714151      -31.5107809569       13.7604987978  MEMB      96              0.0000000000
     11120        96  OSM       C5F            41.7151544834      -31.5678832537       11.7683928452  MEMB      96              0.0000000000
     11121        96  OSM       H5F            42.6489807282      -31.9609459076       11.3125525936  MEMB      96              0.0000000000
     11122        96  OSM       H5G            41.7707843901      -30.4823772933       11.5383860757  MEMB      96              0.0000000000
     11123        96  OSM       C6F            40.4885201057      -32.0654906867       10.9540791596  MEMB      96              0.0000000000
     11124        96  OSM       H6F            39.5504185304      -31.6161817417       11.3444731169  MEMB      96              0.0000000000
     11125        96  OSM       H6G            40.5411087085      -33.1373378801       11.2416538080  MEMB      96              0.0000000000
     11126        96  OSM       C7F            40.4124178319      -31.5848769237        9.4936042041  MEMB      96              0.0000000000
     11127        96  OSM       H7F            41.1405432101      -32.1381918728        8.8627338871  MEMB      96              0.0000000000
     11128        96  OSM       H7G            40.6908138424      -30.5104488863        9.4443994688  MEMB      96              0.0000000000
     11129        96  OSM       C8F            39.0822390646      -31.8215823650        8.7046473943  MEMB      96              0.0000000000
     11130        96  OSM       H8F            38.7161018673      -32.8318940924        8.9866671176  MEMB      96              0.0000000000
     11131        96  OSM       H8G            39.2600052700      -31.8778432282        7.6094055908  MEMB      96              0.0000000000
     11132        96  OSM       C9F            37.9526576445      -30.8934145620        8.9557694535  MEMB      96              0.0000000000
     11133        96  OSM       H9F            38.2200489375      -29.8466441590        8.7489517772  MEMB      96              0.0000000000
     11134        96  OSM       C10F           36.6580455213      -31.1733995448        9.2898433404  MEMB      96              0.0000000000
     11135        96  OSM       H10F           35.9492542012      -30.3340567215        9.3456883477  MEMB      96              0.0000000000
     11136        96  OSM       C11F           36.0900939230      -32.5377660838        9.5060616267  MEMB      96              0.0000000000
     11137        96  OSM       H11F           35.0882996043      -32.3726384712        9.9571300933  MEMB      96              0.0000000000
     11138        96  OSM       H11G           36.6880497971      -33.2129730117       10.1548034589  MEMB      96              0.0000000000
     11139        96  OSM       C12F           36.0181203414      -33.4110110134        8.1972066575  MEMB      96              0.0000000000
     11140        96  OSM       H12F           35.6108374220      -34.4182281659        8.4294885276  MEMB      96              0.0000000000
     11141        96  OSM       H12G           37.0387032489      -33.6216478554        7.8120269671  MEMB      96              0.0000000000
     11142        96  OSM       C13F           34.9010056608      -33.0024914167        7.1032411197  MEMB      96              0.0000000000
     11143        96  OSM       H13F           35.0941864225      -31.9214895384        6.9346080427  MEMB      96              0.0000000000
     11144        96  OSM       H13G           33.9064576838      -33.0626376933        7.5947464817  MEMB      96              0.0000000000
     11145        96  OSM       C14F           34.9093874158      -33.8824292438        5.8516312509  MEMB      96              0.0000000000
     11146        96  OSM       H14F           34.0654560234      -33.4835228066        5.2491584339  MEMB      96              0.0000000000
     11147        96  OSM       H14G           34.5994554290      -34.9362428960        6.0181850000  MEMB      96              0.0000000000
     11148        96  OSM       C15F           36.2318265228      -33.5914480270        5.1126699265  MEMB      96              0.0000000000
     11149        96  OSM       H15F           36.1448900829      -34.2134939174        4.1962526188  MEMB      96              0.0000000000
     11150        96  OSM       H15G           37.0810493969      -33.9255990122        5.7462979884  MEMB      96              0.0000000000
     11151        96  OSM       C16F           36.4193059458      -32.1264486537        4.7216935935  MEMB      96              0.0000000000
     11152        96  OSM       H16F           36.5478656828      -31.4552263431        5.5976243551  MEMB      96              0.0000000000
     11153        96  OSM       H16G           35.4738336311      -31.7980135649        4.2394772308  MEMB      96              0.0000000000
     11154        96  OSM       C17F           37.5681143296      -31.9088891823        3.6397231041  MEMB      96              0.0000000000
     11155        96  OSM       H17F           38.1625844706      -32.8464763361        3.5966375065  MEMB      96              0.0000000000
     11156        96  OSM       H17G           38.3089255052      -31.1562876536        3.9848473796  MEMB      96              0.0000000000
     11157        96  OSM       C18F           37.1654804089      -31.6478846904        2.1466404409  MEMB      96              0.0000000000
     11158        96  OSM       H18F           36.6275233174      -32.5369368119        1.7535646604  MEMB      96              0.0000000000
     11159        96  OSM       H18G           37.9892006822      -31.4786087869        1.4205896725  MEMB      96              0.0000000000
     11160        96  OSM       H18H           36.4639032346      -30.7908033330        2.0599107305  MEMB      96              0.0000000000
     11161        97  SAPE      N              -0.6853841711        2.9266848201      -20.2982449331  MEMB      97              0.0000000000
     11162        97  SAPE      HN1            -0.1686905748        2.8102963802      -21.1932765457  MEMB      97              0.0000000000
     11163        97  SAPE      HN2            -0.4152527026        2.2728067876      -19.5359637188  MEMB      97              0.0000000000
     11164        97  SAPE      HN3            -1.7207352021        2.9321750596      -20.3963163688  MEMB      97              0.0000000000
     11165        97  SAPE      C12            -0.5089486725        4.3433819069      -19.9257772554  MEMB      97              0.0000000000
     11166        97  SAPE      H12A           -1.3343823945        4.4735147620      -19.1936257593  MEMB      97              0.0000000000
     11167        97  SAPE      H12B           -0.5902004006        4.9537085049      -20.8505587049  MEMB      97              0.0000000000
     11168        97  SAPE      C11             0.9605917533        4.2695817635      -19.3425641640  MEMB      97              0.0000000000
     11169        97  SAPE      H11A            1.1111183359        3.7361563243      -18.3796933362  MEMB      97              0.0000000000
     11170        97  SAPE      H11B            1.0993779054        5.3472281224      -19.1107503414  MEMB      97              0.0000000000
     11171        97  SAPE      P               2.8541677796        2.6947983619      -20.1192713664  MEMB      97              0.0000000000
     11172        97  SAPE      O13             1.9784089570        1.5640725463      -20.0586885157  MEMB      97              0.0000000000
     11173        97  SAPE      O14             3.9136855928        2.6668446464      -21.1313742564  MEMB      97              0.0000000000
     11174        97  SAPE      O12             1.8617036362        3.9701644174      -20.4537829239  MEMB      97              0.0000000000
     11175        97  SAPE      O11             3.2899665201        2.8531094505      -18.6702966155  MEMB      97              0.0000000000
     11176        97  SAPE      C1              4.1062635380        3.9314098795      -18.2557219883  MEMB      97              0.0000000000
     11177        97  SAPE      HA              5.0272735000        4.0063482316      -18.8725248038  MEMB      97              0.0000000000
     11178        97  SAPE      HB              3.6026258713        4.9212566667      -18.2852748679  MEMB      97              0.0000000000
     11179        97  SAPE      C2              4.5828889829        3.6462286209      -16.8197090960  MEMB      97              0.0000000000
     11180        97  SAPE      HS              5.2718256176        2.7772944686      -16.7515842152  MEMB      97              0.0000000000
     11181        97  SAPE      O21             3.3933820854        3.3801702495      -16.0948806489  MEMB      97              0.0000000000
     11182        97  SAPE      C21             3.4283536176        2.5999624507      -15.0694551690  MEMB      97              0.0000000000
     11183        97  SAPE      O22             4.3247443411        1.8474259395      -14.7140878260  MEMB      97              0.0000000000
     11184        97  SAPE      C22             2.1570234284        2.8595549027      -14.2439410737  MEMB      97              0.0000000000
     11185        97  SAPE      H2R             1.8119552095        1.8639988281      -13.8916386838  MEMB      97              0.0000000000
     11186        97  SAPE      H2S             2.4549736612        3.3627045276      -13.2992787891  MEMB      97              0.0000000000
     11187        97  SAPE      C3              5.3784665144        4.8563913420      -16.2255864688  MEMB      97              0.0000000000
     11188        97  SAPE      HX              4.8478090531        5.7869107550      -16.5203019046  MEMB      97              0.0000000000
     11189        97  SAPE      HY              6.3200600458        4.9758763784      -16.8030342760  MEMB      97              0.0000000000
     11190        97  SAPE      O31             5.7147162212        4.6311590989      -14.8188219639  MEMB      97              0.0000000000
     11191        97  SAPE      C31             4.8898569309        5.2297519544      -13.9348394014  MEMB      97              0.0000000000
     11192        97  SAPE      O32             3.8128347362        5.7422960059      -14.1819254435  MEMB      97              0.0000000000
     11193        97  SAPE      C32             5.5191409998        5.2298767808      -12.5985540485  MEMB      97              0.0000000000
     11194        97  SAPE      H2X             6.3320701186        5.9867467037      -12.5737673194  MEMB      97              0.0000000000
     11195        97  SAPE      H2Y             5.9331229287        4.2301094794      -12.3467502828  MEMB      97              0.0000000000
     11196        97  SAPE      C23             1.0325504749        3.7389818162      -14.9220153830  MEMB      97              0.0000000000
     11197        97  SAPE      H3R             0.7029600157        3.2288142824      -15.8522949927  MEMB      97              0.0000000000
     11198        97  SAPE      H3S             1.5573258746        4.6526220722      -15.2744261749  MEMB      97              0.0000000000
     11199        97  SAPE      C24            -0.1355187305        3.9217537980      -13.9579601854  MEMB      97              0.0000000000
     11200        97  SAPE      H4R            -0.8444515447        4.6550150052      -14.3984865744  MEMB      97              0.0000000000
     11201        97  SAPE      H4S             0.2688960953        4.4109100906      -13.0460964079  MEMB      97              0.0000000000
     11202        97  SAPE      C25            -0.8996338900        2.6267914249      -13.7168166811  MEMB      97              0.0000000000
     11203        97  SAPE      H5R            -1.4818614432        2.3701393805      -14.6141130432  MEMB      97              0.0000000000
     11204        97  SAPE      C26            -0.8194020438        1.7562755452      -12.7696643770  MEMB      97              0.0000000000
     11205        97  SAPE      H6R            -1.4639885468        0.8655561927      -12.8032451275  MEMB      97              0.0000000000
     11206        97  SAPE      C27            -0.0103584633        1.6308146964      -11.5487538903  MEMB      97              0.0000000000
     11207        97  SAPE      H7R             0.4896695218        2.6155171211      -11.4276983992  MEMB      97              0.0000000000
     11208        97  SAPE      H7S             0.7897110745        0.8633753529      -11.6211876086  MEMB      97              0.0000000000
     11209        97  SAPE      C28            -0.7234192405        1.4688231001      -10.2512005247  MEMB      97              0.0000000000
     11210        97  SAPE      H8R            -1.4397450265        0.6348785715      -10.2136066267  MEMB      97              0.0000000000
     11211        97  SAPE      C29            -0.5894405794        2.1884992359       -9.1311217687  MEMB      97              0.0000000000
     11212        97  SAPE      H9R            -1.1236091870        1.8757261455       -8.2218160973  MEMB      97              0.0000000000
     11213        97  SAPE      C210            0.3588429761        3.3511092554       -8.8781602888  MEMB      97              0.0000000000
     11214        97  SAPE      H10R            0.9957139689        3.6677101346       -9.7316709881  MEMB      97              0.0000000000
     11215        97  SAPE      H10S            1.0562864530        3.0835983747       -8.0557661167  MEMB      97              0.0000000000
     11216        97  SAPE      C211           -0.4655931949        4.5685495465       -8.4204979637  MEMB      97              0.0000000000
     11217        97  SAPE      H11R           -0.9881250667        5.1323187337       -9.2073426017  MEMB      97              0.0000000000
     11218        97  SAPE      C212           -0.6496583722        5.0566316819       -7.1666150185  MEMB      97              0.0000000000
     11219        97  SAPE      H12R           -1.3581446575        5.8947373652       -7.0916102511  MEMB      97              0.0000000000
     11220        97  SAPE      C213           -0.1925299013        4.6671219353       -5.7333079153  MEMB      97              0.0000000000
     11221        97  SAPE      H13R           -0.9965938614        4.0358196505       -5.2982680665  MEMB      97              0.0000000000
     11222        97  SAPE      H13S           -0.2323041430        5.6054902068       -5.1398397295  MEMB      97              0.0000000000
     11223        97  SAPE      C214            1.1528453724        3.9454861637       -5.4980909967  MEMB      97              0.0000000000
     11224        97  SAPE      H14R            1.0654635187        2.8490085259       -5.4880160444  MEMB      97              0.0000000000
     11225        97  SAPE      C215            2.3808074663        4.4576833298       -5.3585099007  MEMB      97              0.0000000000
     11226        97  SAPE      H15R            3.2785429573        3.8463866883       -5.1841901845  MEMB      97              0.0000000000
     11227        97  SAPE      C216            2.7033488859        5.9125394097       -5.3500638998  MEMB      97              0.0000000000
     11228        97  SAPE      H16R            1.7254604306        6.4175966014       -5.5016329115  MEMB      97              0.0000000000
     11229        97  SAPE      H16S            3.3877735842        6.1324330843       -6.1971361162  MEMB      97              0.0000000000
     11230        97  SAPE      C217            3.3216949216        6.4009550933       -4.0985958788  MEMB      97              0.0000000000
     11231        97  SAPE      H17R            2.6299715190        6.3708102631       -3.2297278470  MEMB      97              0.0000000000
     11232        97  SAPE      H17S            3.4903673725        7.4849005490       -4.2744730317  MEMB      97              0.0000000000
     11233        97  SAPE      C218            4.6288626246        5.7304751334       -3.5974119528  MEMB      97              0.0000000000
     11234        97  SAPE      H18R            5.4878636378        5.7755233692       -4.3005543215  MEMB      97              0.0000000000
     11235        97  SAPE      H18S            4.2912934074        4.6945126500       -3.3802719490  MEMB      97              0.0000000000
     11236        97  SAPE      C219            5.1743818020        6.2177686501       -2.2110902318  MEMB      97              0.0000000000
     11237        97  SAPE      H19R            4.3769459244        6.1276727427       -1.4427807099  MEMB      97              0.0000000000
     11238        97  SAPE      H19S            5.2533716313        7.3075045612       -2.4124783803  MEMB      97              0.0000000000
     11239        97  SAPE      C220            6.4893827686        5.5372746653       -1.7919678432  MEMB      97              0.0000000000
     11240        97  SAPE      H20R            7.1833602278        5.6382639772       -2.6536620844  MEMB      97              0.0000000000
     11241        97  SAPE      H20S            6.4844541723        4.4511492781       -1.5582406741  MEMB      97              0.0000000000
     11242        97  SAPE      H20T            6.9874037010        6.0393526884       -0.9351039024  MEMB      97              0.0000000000
     11243        97  SAPE      C33             4.4923531108        5.6876293458      -11.5345482040  MEMB      97              0.0000000000
     11244        97  SAPE      H3X             3.5328426337        5.1422557387      -11.6619362543  MEMB      97              0.0000000000
     11245        97  SAPE      H3Y             4.2008867112        6.7332201034      -11.7714199263  MEMB      97              0.0000000000
     11246        97  SAPE      C34             5.0141448737        5.5029844237      -10.1117811328  MEMB      97              0.0000000000
     11247        97  SAPE      H4X             4.4360782686        6.2598998469       -9.5397335696  MEMB      97              0.0000000000
     11248        97  SAPE      H4Y             6.0956336487        5.7573504491      -10.1109414013  MEMB      97              0.0000000000
     11249        97  SAPE      C35             5.1031716081        4.2034585234       -9.3336208303  MEMB      97              0.0000000000
     11250        97  SAPE      H5X             5.4278269187        4.3227968134       -8.2778378521  MEMB      97              0.0000000000
     11251        97  SAPE      H5Y             5.8675655564        3.6830613641       -9.9494210907  MEMB      97              0.0000000000
     11252        97  SAPE      C36             3.7738810679        3.4714421262       -9.3346716987  MEMB      97              0.0000000000
     11253        97  SAPE      H6X             3.5424949030        3.4649486345      -10.4212895771  MEMB      97              0.0000000000
     11254        97  SAPE      H6Y             2.9880836917        4.0736632808       -8.8305154627  MEMB      97              0.0000000000
     11255        97  SAPE      C37             3.8393933623        1.9586433402       -8.9679461547  MEMB      97              0.0000000000
     11256        97  SAPE      H7X             4.4862139355        1.4174371028       -9.6911611209  MEMB      97              0.0000000000
     11257        97  SAPE      H7Y             2.8458933438        1.4689819347       -9.0546088462  MEMB      97              0.0000000000
     11258        97  SAPE      C38             4.4278216143        1.7166295827       -7.5816428760  MEMB      97              0.0000000000
     11259        97  SAPE      H8X             3.7339003198        2.1581035360       -6.8347190671  MEMB      97              0.0000000000
     11260        97  SAPE      H8Y             5.4114752894        2.2229208583       -7.4795883798  MEMB      97              0.0000000000
     11261        97  SAPE      C39             4.7017030428        0.2883866883       -7.1711343407  MEMB      97              0.0000000000
     11262        97  SAPE      H9X             5.3263827520       -0.1660495464       -7.9696232469  MEMB      97              0.0000000000
     11263        97  SAPE      H9Y             3.7742001868       -0.2902995574       -6.9731921742  MEMB      97              0.0000000000
     11264        97  SAPE      C310            5.5163129215        0.1524056458       -5.8767281780  MEMB      97              0.0000000000
     11265        97  SAPE      H10X            6.5477730818        0.5313236230       -6.0405334212  MEMB      97              0.0000000000
     11266        97  SAPE      H10Y            5.4231965495       -0.9278366664       -5.6343929100  MEMB      97              0.0000000000
     11267        97  SAPE      C311            4.8032319081        0.8802560298       -4.7191082465  MEMB      97              0.0000000000
     11268        97  SAPE      H11X            3.7761414693        0.5041288484       -4.5243401335  MEMB      97              0.0000000000
     11269        97  SAPE      H11Y            4.6596580835        1.9629872464       -4.9225803981  MEMB      97              0.0000000000
     11270        97  SAPE      C312            5.6423274727        0.9218896739       -3.4270760319  MEMB      97              0.0000000000
     11271        97  SAPE      H12X            6.6168849624        1.4008426891       -3.6619435338  MEMB      97              0.0000000000
     11272        97  SAPE      H12Y            5.7881221171       -0.1360008455       -3.1205928175  MEMB      97              0.0000000000
     11273        97  SAPE      C313            4.9416705503        1.8159533157       -2.4156093701  MEMB      97              0.0000000000
     11274        97  SAPE      H13X            4.3466183480        2.5418889169       -3.0099594609  MEMB      97              0.0000000000
     11275        97  SAPE      H13Y            5.7328050893        2.4108333860       -1.9110857513  MEMB      97              0.0000000000
     11276        97  SAPE      C314            4.1548258529        1.0540547932       -1.3291283275  MEMB      97              0.0000000000
     11277        97  SAPE      H14X            4.7896123651        0.2783709229       -0.8498786453  MEMB      97              0.0000000000
     11278        97  SAPE      H14Y            3.2232501982        0.6571734706       -1.7862645116  MEMB      97              0.0000000000
     11279        97  SAPE      C315            3.7504423589        1.9700102015       -0.1510294261  MEMB      97              0.0000000000
     11280        97  SAPE      H15X            4.6714637460        2.1252425285        0.4505872015  MEMB      97              0.0000000000
     11281        97  SAPE      H15Y            3.0004818197        1.4626569105        0.4927666816  MEMB      97              0.0000000000
     11282        97  SAPE      C316            3.0421505702        3.1944111986       -0.6017105077  MEMB      97              0.0000000000
     11283        97  SAPE      H16X            3.7305584943        3.8192283857       -1.2100026063  MEMB      97              0.0000000000
     11284        97  SAPE      H16Y            2.8573792779        3.7649490840        0.3335257041  MEMB      97              0.0000000000
     11285        97  SAPE      C317            1.6306133492        2.9830237116       -1.2802287761  MEMB      97              0.0000000000
     11286        97  SAPE      H17X            1.0266019505        2.3228387597       -0.6217097911  MEMB      97              0.0000000000
     11287        97  SAPE      H17Y            1.9083966339        2.5509663887       -2.2653596931  MEMB      97              0.0000000000
     11288        97  SAPE      C318            0.9236106868        4.3095057086       -1.5758395316  MEMB      97              0.0000000000
     11289        97  SAPE      H18X            0.2521911255        4.1460409908       -2.4457799798  MEMB      97              0.0000000000
     11290        97  SAPE      H18Y            1.6691285273        5.0893043646       -1.8412412067  MEMB      97              0.0000000000
     11291        97  SAPE      H18Z            0.2637426086        4.6964217036       -0.7701150594  MEMB      97              0.0000000000
     11292        98  SAPE      N               0.1205827804       -6.3999690073      -22.5043113691  MEMB      98              0.0000000000
     11293        98  SAPE      HN1             0.7164678096       -7.1542180587      -22.1072854496  MEMB      98              0.0000000000
     11294        98  SAPE      HN2            -0.7358401230       -6.3614497658      -21.9155362633  MEMB      98              0.0000000000
     11295        98  SAPE      HN3            -0.2792561585       -6.6528021019      -23.4304885427  MEMB      98              0.0000000000
     11296        98  SAPE      C12             0.8968311750       -5.1534381573      -22.4935444132  MEMB      98              0.0000000000
     11297        98  SAPE      H12A            0.2078197495       -4.3152586701      -22.7323733959  MEMB      98              0.0000000000
     11298        98  SAPE      H12B            1.7735261480       -5.2273927949      -23.1719672075  MEMB      98              0.0000000000
     11299        98  SAPE      C11             1.3221944456       -4.8982402638      -21.0446916317  MEMB      98              0.0000000000
     11300        98  SAPE      H11A            1.9672982511       -3.9951604802      -21.0957705001  MEMB      98              0.0000000000
     11301        98  SAPE      H11B            1.8035464107       -5.8042751305      -20.6184027271  MEMB      98              0.0000000000
     11302        98  SAPE      P               0.2103294103       -4.4716472845      -18.7511004140  MEMB      98              0.0000000000
     11303        98  SAPE      O13             1.0031163952       -3.3182170853      -18.4439501222  MEMB      98              0.0000000000
     11304        98  SAPE      O14            -1.1379405675       -4.3894154544      -18.1947207320  MEMB      98              0.0000000000
     11305        98  SAPE      O12             0.1368997143       -4.6519365419      -20.3256746379  MEMB      98              0.0000000000
     11306        98  SAPE      O11             0.9340146006       -5.7816930670      -18.2420067064  MEMB      98              0.0000000000
     11307        98  SAPE      C1              0.4181675648       -7.0407219502      -18.6940955893  MEMB      98              0.0000000000
     11308        98  SAPE      HA             -0.6706451385       -7.1468974531      -18.5003567022  MEMB      98              0.0000000000
     11309        98  SAPE      HB              0.5390540403       -7.0929214259      -19.7972649363  MEMB      98              0.0000000000
     11310        98  SAPE      C2              1.3729288803       -8.1942921905      -18.1764582558  MEMB      98              0.0000000000
     11311        98  SAPE      HS              0.9625962045       -9.1670920483      -18.5223032950  MEMB      98              0.0000000000
     11312        98  SAPE      O21             1.4722059177       -8.1602792950      -16.7530409883  MEMB      98              0.0000000000
     11313        98  SAPE      C21             0.3662295760       -8.4633668716      -16.0369867191  MEMB      98              0.0000000000
     11314        98  SAPE      O22            -0.6999398848       -8.7538378886      -16.4864881650  MEMB      98              0.0000000000
     11315        98  SAPE      C22             0.7127546101       -8.4757908693      -14.5579472615  MEMB      98              0.0000000000
     11316        98  SAPE      H2R             1.4119140195       -9.2520293973      -14.1798586187  MEMB      98              0.0000000000
     11317        98  SAPE      H2S             1.1331822880       -7.4887375486      -14.2693518107  MEMB      98              0.0000000000
     11318        98  SAPE      C3              2.7824908201       -8.0990889317      -18.8074405726  MEMB      98              0.0000000000
     11319        98  SAPE      HX              2.6596286880       -8.1846529790      -19.9083060388  MEMB      98              0.0000000000
     11320        98  SAPE      HY              3.4486164851       -8.9111091994      -18.4451961395  MEMB      98              0.0000000000
     11321        98  SAPE      O31             3.2713104264       -6.8022344546      -18.4837260551  MEMB      98              0.0000000000
     11322        98  SAPE      C31             3.9938123799       -6.6520191409      -17.3419343591  MEMB      98              0.0000000000
     11323        98  SAPE      O32             4.4222391517       -7.5518472901      -16.6514639654  MEMB      98              0.0000000000
     11324        98  SAPE      C32             4.3714602970       -5.2523787295      -17.1630855145  MEMB      98              0.0000000000
     11325        98  SAPE      H2X             3.8186552156       -4.6147290792      -17.8856714100  MEMB      98              0.0000000000
     11326        98  SAPE      H2Y             5.3763933183       -5.0157017239      -17.5734695665  MEMB      98              0.0000000000
     11327        98  SAPE      C23            -0.6515511695       -8.7385760548      -13.7609940012  MEMB      98              0.0000000000
     11328        98  SAPE      H3R            -1.0793720923       -9.7020687733      -14.1116678255  MEMB      98              0.0000000000
     11329        98  SAPE      H3S            -1.3909873273       -7.9562888531      -14.0359161175  MEMB      98              0.0000000000
     11330        98  SAPE      C24            -0.6381269186       -8.7923122489      -12.1649704843  MEMB      98              0.0000000000
     11331        98  SAPE      H4R            -1.6901094043       -8.9991831127      -11.8736659960  MEMB      98              0.0000000000
     11332        98  SAPE      H4S            -0.4069256511       -7.7776062411      -11.7760765564  MEMB      98              0.0000000000
     11333        98  SAPE      C25             0.2550851426       -9.8692158436      -11.5156627578  MEMB      98              0.0000000000
     11334        98  SAPE      H5R             0.2740604704      -10.7550797253      -12.1674954185  MEMB      98              0.0000000000
     11335        98  SAPE      C26             0.7332837560       -9.8838761533      -10.2518851636  MEMB      98              0.0000000000
     11336        98  SAPE      H6R             1.2961682705      -10.7945825117       -9.9993480750  MEMB      98              0.0000000000
     11337        98  SAPE      C27             0.4959320040       -8.7777937333       -9.2265259384  MEMB      98              0.0000000000
     11338        98  SAPE      H7R             0.1999443546       -9.2108942953       -8.2471708243  MEMB      98              0.0000000000
     11339        98  SAPE      H7S            -0.3538051845       -8.0947548988       -9.4403606293  MEMB      98              0.0000000000
     11340        98  SAPE      C28             1.7749803566       -7.9458578621       -9.1808557174  MEMB      98              0.0000000000
     11341        98  SAPE      H8R             1.9589465836       -7.3207462466      -10.0670794123  MEMB      98              0.0000000000
     11342        98  SAPE      C29             2.7656726969       -7.9228397876       -8.2956006307  MEMB      98              0.0000000000
     11343        98  SAPE      H9R             3.4496764464       -7.0966302083       -8.5395618492  MEMB      98              0.0000000000
     11344        98  SAPE      C210            3.2197705291       -8.5855681463       -7.0681087209  MEMB      98              0.0000000000
     11345        98  SAPE      H10R            2.9706824344       -7.8628917239       -6.2618741747  MEMB      98              0.0000000000
     11346        98  SAPE      H10S            4.3269721173       -8.6657725338       -7.0234675171  MEMB      98              0.0000000000
     11347        98  SAPE      C211            2.7070246983       -9.9957056058       -6.7848775795  MEMB      98              0.0000000000
     11348        98  SAPE      H11R            3.3946798153      -10.7591615806       -7.1776428716  MEMB      98              0.0000000000
     11349        98  SAPE      C212            1.6578019896      -10.4721568414       -6.0017580462  MEMB      98              0.0000000000
     11350        98  SAPE      H12R            1.4965989946      -11.5314772239       -5.7530538719  MEMB      98              0.0000000000
     11351        98  SAPE      C213            0.7728231075       -9.4974329767       -5.2469125038  MEMB      98              0.0000000000
     11352        98  SAPE      H13R            0.3949442356       -8.6034583377       -5.7875965608  MEMB      98              0.0000000000
     11353        98  SAPE      H13S            1.3813507298       -9.0864463207       -4.4131831877  MEMB      98              0.0000000000
     11354        98  SAPE      C214           -0.3724129642      -10.2344765235       -4.5888285720  MEMB      98              0.0000000000
     11355        98  SAPE      H14R           -0.9677129052      -10.8633262094       -5.2671841459  MEMB      98              0.0000000000
     11356        98  SAPE      C215           -0.7694892679      -10.4239401219       -3.2942357572  MEMB      98              0.0000000000
     11357        98  SAPE      H15R           -1.7491969915      -10.8848893296       -3.1000745251  MEMB      98              0.0000000000
     11358        98  SAPE      C216           -0.0993577531       -9.9149716113       -2.0040697598  MEMB      98              0.0000000000
     11359        98  SAPE      H16R           -0.8431894748       -9.6067810284       -1.2385295522  MEMB      98              0.0000000000
     11360        98  SAPE      H16S            0.5414584413       -9.0300232799       -2.2054210215  MEMB      98              0.0000000000
     11361        98  SAPE      C217            0.7398898912      -11.0668632785       -1.4286776628  MEMB      98              0.0000000000
     11362        98  SAPE      H17R            1.5049719340      -11.4466115288       -2.1391438630  MEMB      98              0.0000000000
     11363        98  SAPE      H17S            0.0798192887      -11.9292526803       -1.1943466503  MEMB      98              0.0000000000
     11364        98  SAPE      C218            1.5747860394      -10.5906582798       -0.2677384778  MEMB      98              0.0000000000
     11365        98  SAPE      H18R            1.9153896442      -11.5194329656        0.2379179686  MEMB      98              0.0000000000
     11366        98  SAPE      H18S            0.9367234363       -9.9467158485        0.3745508296  MEMB      98              0.0000000000
     11367        98  SAPE      C219            2.7946354883       -9.7802124233       -0.5559828532  MEMB      98              0.0000000000
     11368        98  SAPE      H19R            2.6648035472       -8.7325778595       -0.9022894772  MEMB      98              0.0000000000
     11369        98  SAPE      H19S            3.1534442970      -10.2938984249       -1.4734277629  MEMB      98              0.0000000000
     11370        98  SAPE      C220            3.6852541627       -9.7865073645        0.5949821354  MEMB      98              0.0000000000
     11371        98  SAPE      H20R            4.2451451585      -10.7431445851        0.6704008610  MEMB      98              0.0000000000
     11372        98  SAPE      H20S            3.1926485461       -9.4764048949        1.5412887855  MEMB      98              0.0000000000
     11373        98  SAPE      H20T            4.5119356261       -9.0587197167        0.4492312255  MEMB      98              0.0000000000
     11374        98  SAPE      C33             4.2763785932       -4.6771716283      -15.7390019478  MEMB      98              0.0000000000
     11375        98  SAPE      H3X             4.6308520474       -3.6307354973      -15.8557977450  MEMB      98              0.0000000000
     11376        98  SAPE      H3Y             4.9947202589       -5.3077613951      -15.1727311130  MEMB      98              0.0000000000
     11377        98  SAPE      C34             2.9245854939       -4.8985181666      -15.1497327234  MEMB      98              0.0000000000
     11378        98  SAPE      H4X             2.8386997248       -5.9313044291      -14.7493617278  MEMB      98              0.0000000000
     11379        98  SAPE      H4Y             2.1744978000       -4.7801908637      -15.9607124890  MEMB      98              0.0000000000
     11380        98  SAPE      C35             2.6420244734       -3.8968385294      -14.0368219151  MEMB      98              0.0000000000
     11381        98  SAPE      H5X             3.1752634585       -2.9537541294      -14.2829309984  MEMB      98              0.0000000000
     11382        98  SAPE      H5Y             3.1012643116       -4.2597178870      -13.0925030697  MEMB      98              0.0000000000
     11383        98  SAPE      C36             1.1255315127       -3.6279706851      -13.6667427646  MEMB      98              0.0000000000
     11384        98  SAPE      H6X             0.5048773408       -3.1452951485      -14.4516849371  MEMB      98              0.0000000000
     11385        98  SAPE      H6Y             1.2939261203       -2.9099267162      -12.8358538692  MEMB      98              0.0000000000
     11386        98  SAPE      C37             0.3790370437       -4.8572882854      -13.2089621965  MEMB      98              0.0000000000
     11387        98  SAPE      H7X             1.0483502131       -5.3907295389      -12.5005970357  MEMB      98              0.0000000000
     11388        98  SAPE      H7Y             0.2422747371       -5.5023281820      -14.1031327770  MEMB      98              0.0000000000
     11389        98  SAPE      C38            -0.8951998232       -4.6535484814      -12.4514807822  MEMB      98              0.0000000000
     11390        98  SAPE      H8X            -1.2751502112       -5.6945264576      -12.3719601448  MEMB      98              0.0000000000
     11391        98  SAPE      H8Y            -1.5995403336       -4.1134236794      -13.1196805859  MEMB      98              0.0000000000
     11392        98  SAPE      C39            -0.7103100270       -3.9084232815      -11.1010192244  MEMB      98              0.0000000000
     11393        98  SAPE      H9X            -1.7504059621       -3.5924155534      -10.8715403268  MEMB      98              0.0000000000
     11394        98  SAPE      H9Y            -0.2205358712       -2.9179734065      -11.2170001626  MEMB      98              0.0000000000
     11395        98  SAPE      C310           -0.1721459198       -4.8364434565      -10.0359817152  MEMB      98              0.0000000000
     11396        98  SAPE      H10X            0.6873921577       -5.4364959253      -10.4040201693  MEMB      98              0.0000000000
     11397        98  SAPE      H10Y           -0.9551753127       -5.5758929853       -9.7632170538  MEMB      98              0.0000000000
     11398        98  SAPE      C311            0.2457923472       -4.0240833878       -8.7948193084  MEMB      98              0.0000000000
     11399        98  SAPE      H11X           -0.4489569401       -3.1610003665       -8.7127704802  MEMB      98              0.0000000000
     11400        98  SAPE      H11Y            1.2608266994       -3.5724231054       -8.7893855989  MEMB      98              0.0000000000
     11401        98  SAPE      C312            0.2819555609       -4.7994544804       -7.4149920821  MEMB      98              0.0000000000
     11402        98  SAPE      H12X            0.8623368527       -4.2458141193       -6.6462524943  MEMB      98              0.0000000000
     11403        98  SAPE      H12Y            0.8765585168       -5.7320581530       -7.5199625806  MEMB      98              0.0000000000
     11404        98  SAPE      C313           -1.1201866253       -5.1055398307       -6.7814017771  MEMB      98              0.0000000000
     11405        98  SAPE      H13X           -1.4851873371       -5.8476771756       -7.5232423301  MEMB      98              0.0000000000
     11406        98  SAPE      H13Y           -1.8507912095       -4.2690449551       -6.7528695190  MEMB      98              0.0000000000
     11407        98  SAPE      C314           -1.0624929266       -5.7670753683       -5.3548034177  MEMB      98              0.0000000000
     11408        98  SAPE      H14X           -0.1913026116       -6.4554928240       -5.3169882514  MEMB      98              0.0000000000
     11409        98  SAPE      H14Y           -2.0223968263       -6.3016629193       -5.1901169005  MEMB      98              0.0000000000
     11410        98  SAPE      C315           -0.9028085335       -4.7279761200       -4.2199641638  MEMB      98              0.0000000000
     11411        98  SAPE      H15X           -1.8868692218       -4.2240743034       -4.1102896516  MEMB      98              0.0000000000
     11412        98  SAPE      H15Y           -0.3284067159       -3.7913367351       -4.3845542482  MEMB      98              0.0000000000
     11413        98  SAPE      C316           -0.7032563271       -5.3007798381       -2.8236555102  MEMB      98              0.0000000000
     11414        98  SAPE      H16X           -1.4465290148       -6.0924511237       -2.5888729683  MEMB      98              0.0000000000
     11415        98  SAPE      H16Y           -0.9860526262       -4.4189767643       -2.2098400068  MEMB      98              0.0000000000
     11416        98  SAPE      C317            0.7211877260       -5.6361293971       -2.4723181774  MEMB      98              0.0000000000
     11417        98  SAPE      H17X            1.4087842590       -4.9519036441       -3.0139502571  MEMB      98              0.0000000000
     11418        98  SAPE      H17Y            0.9018888980       -6.5680041766       -3.0496196325  MEMB      98              0.0000000000
     11419        98  SAPE      C318            1.0457082808       -5.8066918625       -0.9943321322  MEMB      98              0.0000000000
     11420        98  SAPE      H18X            0.3122359855       -6.4930060813       -0.5196617848  MEMB      98              0.0000000000
     11421        98  SAPE      H18Y            1.0327706225       -4.8251044781       -0.4741015035  MEMB      98              0.0000000000
     11422        98  SAPE      H18Z            2.0584980486       -6.2622982911       -0.9626964633  MEMB      98              0.0000000000
     11423        99  SAPE      N              -6.8607556797       -2.2779467186      -21.6633466919  MEMB      99              0.0000000000
     11424        99  SAPE      HN1            -6.8479108855       -3.2658252361      -21.3384920309  MEMB      99              0.0000000000
     11425        99  SAPE      HN2            -7.8167089445       -1.8822580822      -21.7691004327  MEMB      99              0.0000000000
     11426        99  SAPE      HN3            -6.3711957937       -2.2285885234      -22.5795862647  MEMB      99              0.0000000000
     11427        99  SAPE      C12            -6.1384062283       -1.4452367207      -20.6454813526  MEMB      99              0.0000000000
     11428        99  SAPE      H12A           -5.1637238154       -1.0695961548      -21.0239115580  MEMB      99              0.0000000000
     11429        99  SAPE      H12B           -5.9660425761       -2.2560392227      -19.9057442135  MEMB      99              0.0000000000
     11430        99  SAPE      C11            -6.9169586471       -0.2358625623      -20.0651207682  MEMB      99              0.0000000000
     11431        99  SAPE      H11A           -7.8228511881       -0.7040833388      -19.6241570444  MEMB      99              0.0000000000
     11432        99  SAPE      H11B           -7.1470690009        0.3225703533      -20.9976029363  MEMB      99              0.0000000000
     11433        99  SAPE      P              -5.1571318898        1.6169671719      -19.6176730211  MEMB      99              0.0000000000
     11434        99  SAPE      O13            -4.8527669278        1.4682121124      -21.0357379758  MEMB      99              0.0000000000
     11435        99  SAPE      O14            -5.6045752067        2.9596031719      -19.1680236659  MEMB      99              0.0000000000
     11436        99  SAPE      O12            -6.1024584903        0.4453307484      -19.0895985769  MEMB      99              0.0000000000
     11437        99  SAPE      O11            -3.8642241971        1.2485438950      -18.7150179273  MEMB      99              0.0000000000
     11438        99  SAPE      C1             -2.9815350376        2.1450233936      -18.0000158077  MEMB      99              0.0000000000
     11439        99  SAPE      HA             -1.9442882519        1.9997228595      -18.3705940919  MEMB      99              0.0000000000
     11440        99  SAPE      HB             -3.1620960573        3.2219744913      -18.2046989140  MEMB      99              0.0000000000
     11441        99  SAPE      C2             -3.0235089620        2.0394884259      -16.4456257161  MEMB      99              0.0000000000
     11442        99  SAPE      HS             -1.9875149610        2.2512042590      -16.1047239843  MEMB      99              0.0000000000
     11443        99  SAPE      O21            -3.4584565597        0.7117802318      -16.0586167851  MEMB      99              0.0000000000
     11444        99  SAPE      C21            -3.2297421942        0.3589896991      -14.8234506309  MEMB      99              0.0000000000
     11445        99  SAPE      O22            -2.5967132555        0.9429247535      -13.9615693223  MEMB      99              0.0000000000
     11446        99  SAPE      C22            -4.2219628289       -0.7698447491      -14.4654606648  MEMB      99              0.0000000000
     11447        99  SAPE      H2R            -5.2678329025       -0.4075559544      -14.3694204703  MEMB      99              0.0000000000
     11448        99  SAPE      H2S            -4.2983231582       -1.4308145953      -15.3551847496  MEMB      99              0.0000000000
     11449        99  SAPE      C3             -3.8992355401        3.0619200073      -15.7318395749  MEMB      99              0.0000000000
     11450        99  SAPE      HX             -3.5123249521        4.0838820458      -15.9323766149  MEMB      99              0.0000000000
     11451        99  SAPE      HY             -3.8220869892        2.8296810897      -14.6481264437  MEMB      99              0.0000000000
     11452        99  SAPE      O31            -5.2631176501        2.9114122563      -16.2725641781  MEMB      99              0.0000000000
     11453        99  SAPE      C31            -6.1993260188        2.9656238820      -15.4035687195  MEMB      99              0.0000000000
     11454        99  SAPE      O32            -6.0568926930        3.0647840257      -14.1822552238  MEMB      99              0.0000000000
     11455        99  SAPE      C32            -7.5795027471        2.8430604960      -16.1475055476  MEMB      99              0.0000000000
     11456        99  SAPE      H2X            -7.5014758363        2.3587606990      -17.1443437934  MEMB      99              0.0000000000
     11457        99  SAPE      H2Y            -7.8545263258        3.9004714350      -16.3489136575  MEMB      99              0.0000000000
     11458        99  SAPE      C23            -3.6400159546       -1.6382572395      -13.3068737777  MEMB      99              0.0000000000
     11459        99  SAPE      H3R            -2.6476915549       -2.0974078912      -13.5038360686  MEMB      99              0.0000000000
     11460        99  SAPE      H3S            -4.1707507830       -2.6078961406      -13.4184177493  MEMB      99              0.0000000000
     11461        99  SAPE      C24            -3.8190348164       -1.1901900857      -11.8543765796  MEMB      99              0.0000000000
     11462        99  SAPE      H4R            -4.8935294742       -1.3502203016      -11.6216265107  MEMB      99              0.0000000000
     11463        99  SAPE      H4S            -3.5656864654       -0.1124809088      -11.7612168110  MEMB      99              0.0000000000
     11464        99  SAPE      C25            -3.0862836132       -2.0105634928      -10.7690612398  MEMB      99              0.0000000000
     11465        99  SAPE      H5R            -2.9713616475       -3.0962553108      -10.9034719635  MEMB      99              0.0000000000
     11466        99  SAPE      C26            -2.5770362621       -1.5058245598       -9.6363872182  MEMB      99              0.0000000000
     11467        99  SAPE      H6R            -2.1616114470       -2.2420632817       -8.9325578526  MEMB      99              0.0000000000
     11468        99  SAPE      C27            -2.6262701545       -0.0585215325       -9.1687518557  MEMB      99              0.0000000000
     11469        99  SAPE      H7R            -2.9166246164       -0.0134985819       -8.0973099971  MEMB      99              0.0000000000
     11470        99  SAPE      H7S            -3.4908912861        0.5237146800       -9.5531379557  MEMB      99              0.0000000000
     11471        99  SAPE      C28            -1.2450659877        0.5728116017       -9.3205376244  MEMB      99              0.0000000000
     11472        99  SAPE      H8R            -0.3994100898       -0.0465927813       -9.6540112196  MEMB      99              0.0000000000
     11473        99  SAPE      C29            -0.8787143402        1.8509280945       -9.0226064530  MEMB      99              0.0000000000
     11474        99  SAPE      H9R             0.1801269027        2.1483495210       -9.0027054388  MEMB      99              0.0000000000
     11475        99  SAPE      C210           -1.7354473329        2.9226959820       -8.4136937061  MEMB      99              0.0000000000
     11476        99  SAPE      H10R           -1.2579251006        3.4643158478       -7.5693343665  MEMB      99              0.0000000000
     11477        99  SAPE      H10S           -2.7432509285        2.5735027266       -8.1027004816  MEMB      99              0.0000000000
     11478        99  SAPE      C211           -2.1276469004        4.1268035420       -9.3132044095  MEMB      99              0.0000000000
     11479        99  SAPE      H11R           -1.2735806040        4.8198185999       -9.3305313154  MEMB      99              0.0000000000
     11480        99  SAPE      C212           -3.1640314708        4.2849948712      -10.2077028829  MEMB      99              0.0000000000
     11481        99  SAPE      H12R           -3.2691771818        5.1938946060      -10.8183137192  MEMB      99              0.0000000000
     11482        99  SAPE      C213           -4.2182344439        3.2322645999      -10.4487749908  MEMB      99              0.0000000000
     11483        99  SAPE      H13R           -4.0105089772        2.3290250815       -9.8361339834  MEMB      99              0.0000000000
     11484        99  SAPE      H13S           -3.9997199710        3.0380240124      -11.5206160437  MEMB      99              0.0000000000
     11485        99  SAPE      C214           -5.6432775294        3.6284544155      -10.2734967274  MEMB      99              0.0000000000
     11486        99  SAPE      H14R           -6.1586986952        3.9688241538      -11.1837106466  MEMB      99              0.0000000000
     11487        99  SAPE      C215           -6.3939528566        3.5514547961       -9.2050713735  MEMB      99              0.0000000000
     11488        99  SAPE      H15R           -7.4146489518        3.9593286320       -9.2477175382  MEMB      99              0.0000000000
     11489        99  SAPE      C216           -5.9726923755        3.0458065150       -7.8500221480  MEMB      99              0.0000000000
     11490        99  SAPE      H16R           -5.0951589825        2.3651455694       -7.8190885285  MEMB      99              0.0000000000
     11491        99  SAPE      H16S           -6.7997062900        2.3612803016       -7.5640280819  MEMB      99              0.0000000000
     11492        99  SAPE      C217           -5.8132264193        4.2134592355       -6.9077782137  MEMB      99              0.0000000000
     11493        99  SAPE      H17R           -6.7753975495        4.7232079236       -6.6870878909  MEMB      99              0.0000000000
     11494        99  SAPE      H17S           -5.1020266493        4.8878945892       -7.4308959014  MEMB      99              0.0000000000
     11495        99  SAPE      C218           -5.1213575567        3.9046003710       -5.5091875863  MEMB      99              0.0000000000
     11496        99  SAPE      H18R           -5.0667192799        4.8552070196       -4.9367520042  MEMB      99              0.0000000000
     11497        99  SAPE      H18S           -4.0967606138        3.5601755045       -5.7658851258  MEMB      99              0.0000000000
     11498        99  SAPE      C219           -5.7298564674        2.7858714668       -4.6368545530  MEMB      99              0.0000000000
     11499        99  SAPE      H19R           -5.6829867151        1.8396750250       -5.2172309098  MEMB      99              0.0000000000
     11500        99  SAPE      H19S           -6.8141226922        3.0232404137       -4.5884439513  MEMB      99              0.0000000000
     11501        99  SAPE      C220           -4.9669765487        2.6247669366       -3.2958657027  MEMB      99              0.0000000000
     11502        99  SAPE      H20R           -4.9064241463        3.5707214857       -2.7163606231  MEMB      99              0.0000000000
     11503        99  SAPE      H20S           -3.9332699057        2.4337082912       -3.6554035074  MEMB      99              0.0000000000
     11504        99  SAPE      H20T           -5.3358136940        1.6859707700       -2.8300951097  MEMB      99              0.0000000000
     11505        99  SAPE      C33            -8.5474400902        2.1520429166      -15.2809912872  MEMB      99              0.0000000000
     11506        99  SAPE      H3X            -9.5502378597        2.1345181476      -15.7589139307  MEMB      99              0.0000000000
     11507        99  SAPE      H3Y            -8.5805372065        2.8122348169      -14.3880343187  MEMB      99              0.0000000000
     11508        99  SAPE      C34            -8.1898690697        0.6932867575      -14.7480708142  MEMB      99              0.0000000000
     11509        99  SAPE      H4X            -7.2875174025        0.7167206513      -14.1003569018  MEMB      99              0.0000000000
     11510        99  SAPE      H4Y            -7.9068338692        0.1345135634      -15.6656680918  MEMB      99              0.0000000000
     11511        99  SAPE      C35            -9.2463035989       -0.0613603565      -14.0171688509  MEMB      99              0.0000000000
     11512        99  SAPE      H5X            -9.9108633737       -0.4783895697      -14.8037870094  MEMB      99              0.0000000000
     11513        99  SAPE      H5Y            -9.8409394769        0.5961531378      -13.3475380175  MEMB      99              0.0000000000
     11514        99  SAPE      C36            -8.8393259615       -1.3233403587      -13.1868109003  MEMB      99              0.0000000000
     11515        99  SAPE      H6X            -8.2852824246       -1.9256841464      -13.9381689113  MEMB      99              0.0000000000
     11516        99  SAPE      H6Y            -9.7042906174       -1.9762641371      -12.9421727412  MEMB      99              0.0000000000
     11517        99  SAPE      C37            -8.1224943943       -1.0682180333      -11.8569927201  MEMB      99              0.0000000000
     11518        99  SAPE      H7X            -8.7916902483       -0.4213794649      -11.2502820781  MEMB      99              0.0000000000
     11519        99  SAPE      H7Y            -7.2763212254       -0.3712983127      -12.0375890207  MEMB      99              0.0000000000
     11520        99  SAPE      C38            -7.7583418847       -2.3203322852      -11.1051666595  MEMB      99              0.0000000000
     11521        99  SAPE      H8X            -6.9509604670       -2.7512018301      -11.7350940316  MEMB      99              0.0000000000
     11522        99  SAPE      H8Y            -8.6417968355       -2.9905685251      -11.1730713843  MEMB      99              0.0000000000
     11523        99  SAPE      C39            -7.1554487714       -2.1133863629       -9.6657207664  MEMB      99              0.0000000000
     11524        99  SAPE      H9X            -6.2219320550       -1.5626324079       -9.9097241969  MEMB      99              0.0000000000
     11525        99  SAPE      H9Y            -6.9502543239       -3.0994094109       -9.1967060126  MEMB      99              0.0000000000
     11526        99  SAPE      C310           -7.8481230917       -1.1574590067       -8.6883855318  MEMB      99              0.0000000000
     11527        99  SAPE      H10X           -8.6611778888       -1.7673390783       -8.2397112507  MEMB      99              0.0000000000
     11528        99  SAPE      H10Y           -8.3170692855       -0.2648351809       -9.1548973712  MEMB      99              0.0000000000
     11529        99  SAPE      C311           -6.8141824462       -0.6449980706       -7.6270636794  MEMB      99              0.0000000000
     11530        99  SAPE      H11X           -7.3273125769       -0.0770168691       -6.8218210608  MEMB      99              0.0000000000
     11531        99  SAPE      H11Y           -6.0223976348        0.0199721017       -8.0335267455  MEMB      99              0.0000000000
     11532        99  SAPE      C312           -6.1009088637       -1.8408553815       -6.9482892633  MEMB      99              0.0000000000
     11533        99  SAPE      H12X           -5.2811907564       -2.1966647800       -7.6084283782  MEMB      99              0.0000000000
     11534        99  SAPE      H12Y           -6.8086854094       -2.6819066949       -6.7870261029  MEMB      99              0.0000000000
     11535        99  SAPE      C313           -5.5703273086       -1.3051339209       -5.5891528315  MEMB      99              0.0000000000
     11536        99  SAPE      H13X           -6.2887637855       -0.6522356550       -5.0488810361  MEMB      99              0.0000000000
     11537        99  SAPE      H13Y           -4.7010153191       -0.6718445542       -5.8676528549  MEMB      99              0.0000000000
     11538        99  SAPE      C314           -5.0998381048       -2.4935816921       -4.7403622305  MEMB      99              0.0000000000
     11539        99  SAPE      H14X           -4.3747989015       -3.1462038395       -5.2720801648  MEMB      99              0.0000000000
     11540        99  SAPE      H14Y           -6.0731444313       -2.9958849224       -4.5541172612  MEMB      99              0.0000000000
     11541        99  SAPE      C315           -4.4741058230       -2.0233345823       -3.4975425829  MEMB      99              0.0000000000
     11542        99  SAPE      H15X           -4.5128313644       -2.9075181187       -2.8259475192  MEMB      99              0.0000000000
     11543        99  SAPE      H15Y           -5.2041998774       -1.3252104996       -3.0350423279  MEMB      99              0.0000000000
     11544        99  SAPE      C316           -3.1181747154       -1.3867001057       -3.6432947785  MEMB      99              0.0000000000
     11545        99  SAPE      H16X           -3.2843635241       -0.3756582651       -4.0728257969  MEMB      99              0.0000000000
     11546        99  SAPE      H16Y           -2.4846552155       -2.0269222036       -4.2937478391  MEMB      99              0.0000000000
     11547        99  SAPE      C317           -2.3314834076       -1.2298516252       -2.3061598735  MEMB      99              0.0000000000
     11548        99  SAPE      H17X           -1.3050019298       -0.9649518385       -2.6385526419  MEMB      99              0.0000000000
     11549        99  SAPE      H17Y           -2.1921523252       -2.1958138121       -1.7752879221  MEMB      99              0.0000000000
     11550        99  SAPE      C318           -2.7856164207       -0.0838880955       -1.4159214386  MEMB      99              0.0000000000
     11551        99  SAPE      H18X           -2.1449618644        0.0003311469       -0.5121574353  MEMB      99              0.0000000000
     11552        99  SAPE      H18Y           -3.8166369869       -0.2913645564       -1.0577722736  MEMB      99              0.0000000000
     11553        99  SAPE      H18Z           -2.7681730988        0.8521095256       -2.0141909490  MEMB      99              0.0000000000
     11554       100  SAPS      N               8.8088069733       -0.6872602504      -18.0086459792  MEMB      100             0.0000000000
     11555       100  SAPS      HN1             8.2263895083       -0.1227802839      -17.3576832741  MEMB      100             0.0000000000
     11556       100  SAPS      HN2             9.3502468078       -1.3956652525      -17.4732908005  MEMB      100             0.0000000000
     11557       100  SAPS      HN3             9.5359406208       -0.0810669640      -18.4392341819  MEMB      100             0.0000000000
     11558       100  SAPS      C12             7.9682369459       -1.2694170920      -19.0581521763  MEMB      100             0.0000000000
     11559       100  SAPS      H12A            7.4038168736       -1.9792938161      -18.4717180382  MEMB      100             0.0000000000
     11560       100  SAPS      C13             6.9293816325       -0.3673535986      -19.7853401687  MEMB      100             0.0000000000
     11561       100  SAPS      O13A            6.8631822404        0.8127933183      -19.4077024008  MEMB      100             0.0000000000
     11562       100  SAPS      O13B            6.3427741389       -0.8386424712      -20.7917726150  MEMB      100             0.0000000000
     11563       100  SAPS      C11             8.8957514249       -1.8550269872      -20.0869084918  MEMB      100             0.0000000000
     11564       100  SAPS      H11A            9.6723936510       -2.3925940422      -19.5019558879  MEMB      100             0.0000000000
     11565       100  SAPS      H11B            9.4202019859       -1.1217324967      -20.7361787497  MEMB      100             0.0000000000
     11566       100  SAPS      P               8.0376729006       -4.2732067035      -20.6020170711  MEMB      100             0.0000000000
     11567       100  SAPS      O13             7.1049868865       -4.9542130040      -21.5742089070  MEMB      100             0.0000000000
     11568       100  SAPS      O14             9.4514263243       -4.7537899823      -20.6248730394  MEMB      100             0.0000000000
     11569       100  SAPS      O12             8.0676976409       -2.7343996872      -20.8877217718  MEMB      100             0.0000000000
     11570       100  SAPS      O11             7.3635994491       -4.3222041756      -19.1726573914  MEMB      100             0.0000000000
     11571       100  SAPS      C1              7.1952957586       -5.5280994680      -18.5122746717  MEMB      100             0.0000000000
     11572       100  SAPS      HA              6.1438159854       -5.6792003385      -18.1868829633  MEMB      100             0.0000000000
     11573       100  SAPS      HB              7.4163103281       -6.3828073595      -19.1867727709  MEMB      100             0.0000000000
     11574       100  SAPS      C2              8.0945198233       -5.5619012861      -17.3061122070  MEMB      100             0.0000000000
     11575       100  SAPS      HS              8.0627779298       -6.5811370857      -16.8651229886  MEMB      100             0.0000000000
     11576       100  SAPS      O21             7.8578868951       -4.4727286162      -16.4335833042  MEMB      100             0.0000000000
     11577       100  SAPS      C21             6.7259187092       -4.4023925052      -15.7519185923  MEMB      100             0.0000000000
     11578       100  SAPS      O22             5.8600206137       -5.2582050811      -15.7016184554  MEMB      100             0.0000000000
     11579       100  SAPS      C22             6.5462921718       -3.1220645664      -14.9455100121  MEMB      100             0.0000000000
     11580       100  SAPS      H2R             7.4548968899       -2.4843214443      -14.9003184805  MEMB      100             0.0000000000
     11581       100  SAPS      H2S             5.7026319953       -2.5768948910      -15.4202192271  MEMB      100             0.0000000000
     11582       100  SAPS      C3              9.6256258004       -5.5963591832      -17.6686380171  MEMB      100             0.0000000000
     11583       100  SAPS      HX              9.9423003887       -4.5986575761      -18.0409680422  MEMB      100             0.0000000000
     11584       100  SAPS      HY              9.6723695901       -6.3719620072      -18.4627265379  MEMB      100             0.0000000000
     11585       100  SAPS      O31            10.4902000817       -5.9467109592      -16.5711892185  MEMB      100             0.0000000000
     11586       100  SAPS      C31            10.7938013788       -4.9850975291      -15.6890693600  MEMB      100             0.0000000000
     11587       100  SAPS      O32            10.6678137063       -3.8068972386      -15.9001833221  MEMB      100             0.0000000000
     11588       100  SAPS      C32            11.4272817182       -5.5497316446      -14.3841246510  MEMB      100             0.0000000000
     11589       100  SAPS      H2X            12.4421181329       -5.9107892059      -14.6562734975  MEMB      100             0.0000000000
     11590       100  SAPS      H2Y            10.8455188951       -6.4428993577      -14.0708766448  MEMB      100             0.0000000000
     11591       100  SAPS      C23             6.1401926242       -3.4604842047      -13.4891965417  MEMB      100             0.0000000000
     11592       100  SAPS      H3R             5.1125960521       -3.8644636494      -13.3660428895  MEMB      100             0.0000000000
     11593       100  SAPS      H3S             5.9642180857       -2.4579266034      -13.0439636301  MEMB      100             0.0000000000
     11594       100  SAPS      C24             7.1292978698       -4.1506598913      -12.6236924662  MEMB      100             0.0000000000
     11595       100  SAPS      H4R             7.0294322934       -3.6912714231      -11.6170592435  MEMB      100             0.0000000000
     11596       100  SAPS      H4S             8.1196821652       -3.8281062261      -13.0102400975  MEMB      100             0.0000000000
     11597       100  SAPS      C25             6.9449092142       -5.6765367645      -12.5114525909  MEMB      100             0.0000000000
     11598       100  SAPS      H5R             7.2579908215       -6.2012153946      -13.4261615627  MEMB      100             0.0000000000
     11599       100  SAPS      C26             6.4737029454       -6.4321379432      -11.5651034614  MEMB      100             0.0000000000
     11600       100  SAPS      H6R             6.3843295518       -7.5218006016      -11.6861313135  MEMB      100             0.0000000000
     11601       100  SAPS      C27             5.9512350088       -5.8591912032      -10.2889734441  MEMB      100             0.0000000000
     11602       100  SAPS      H7R             5.0320190663       -6.3588775002       -9.9152410407  MEMB      100             0.0000000000
     11603       100  SAPS      H7S             5.5652385992       -4.8282404220      -10.4388676697  MEMB      100             0.0000000000
     11604       100  SAPS      C28             7.1073068585       -5.8684891356       -9.2840631805  MEMB      100             0.0000000000
     11605       100  SAPS      H8R             8.1156838332       -5.7461753697       -9.7062187682  MEMB      100             0.0000000000
     11606       100  SAPS      C29             6.8318682790       -5.9176465285       -7.9991393603  MEMB      100             0.0000000000
     11607       100  SAPS      H9R             7.7296275556       -6.0515402243       -7.3777692684  MEMB      100             0.0000000000
     11608       100  SAPS      C210            5.4901399034       -5.9288109322       -7.2451925986  MEMB      100             0.0000000000
     11609       100  SAPS      H10R            4.9494921946       -6.8979447764       -7.1922712085  MEMB      100             0.0000000000
     11610       100  SAPS      H10S            4.8313324110       -5.2625260393       -7.8421498808  MEMB      100             0.0000000000
     11611       100  SAPS      C211            5.6088743291       -5.4921287365       -5.7651011845  MEMB      100             0.0000000000
     11612       100  SAPS      H11R            6.5184043516       -5.8434844066       -5.2558814995  MEMB      100             0.0000000000
     11613       100  SAPS      C212            4.8011736862       -4.5538546534       -5.1256291553  MEMB      100             0.0000000000
     11614       100  SAPS      H12R            4.9808984613       -4.3542000291       -4.0589352421  MEMB      100             0.0000000000
     11615       100  SAPS      C213            3.6306633126       -3.8145738736       -5.6382148870  MEMB      100             0.0000000000
     11616       100  SAPS      H13R            2.7638845213       -3.8888364793       -4.9472007531  MEMB      100             0.0000000000
     11617       100  SAPS      H13S            3.2781165598       -4.4108693417       -6.5068136837  MEMB      100             0.0000000000
     11618       100  SAPS      C214            3.9632561612       -2.3997756483       -6.1499694680  MEMB      100             0.0000000000
     11619       100  SAPS      H14R            4.1851549467       -2.2294314526       -7.2138045783  MEMB      100             0.0000000000
     11620       100  SAPS      C215            3.7844200535       -1.2134256427       -5.4149721211  MEMB      100             0.0000000000
     11621       100  SAPS      H15R            4.1004412911       -0.2493760827       -5.8401057005  MEMB      100             0.0000000000
     11622       100  SAPS      C216            3.3159320982       -1.0939965814       -3.9983095593  MEMB      100             0.0000000000
     11623       100  SAPS      H16R            3.1194255832       -2.0515413263       -3.4702825883  MEMB      100             0.0000000000
     11624       100  SAPS      H16S            2.3221245724       -0.6066122412       -3.9027918883  MEMB      100             0.0000000000
     11625       100  SAPS      C217            4.3068087910       -0.2573260842       -3.1584517585  MEMB      100             0.0000000000
     11626       100  SAPS      H17R            4.2037036611        0.8337585999       -3.3407297367  MEMB      100             0.0000000000
     11627       100  SAPS      H17S            5.3757609290       -0.5168436624       -3.3143775021  MEMB      100             0.0000000000
     11628       100  SAPS      C218            3.9856392427       -0.3465084851       -1.6573039109  MEMB      100             0.0000000000
     11629       100  SAPS      H18R            4.1998231116       -1.3871570093       -1.3325006899  MEMB      100             0.0000000000
     11630       100  SAPS      H18S            2.9073940061       -0.1213680173       -1.5123200105  MEMB      100             0.0000000000
     11631       100  SAPS      C219            4.8368828263        0.6159385310       -0.8134314198  MEMB      100             0.0000000000
     11632       100  SAPS      H19R            4.6085459217        0.6267275823        0.2737976912  MEMB      100             0.0000000000
     11633       100  SAPS      H19S            4.5579358582        1.6663420995       -1.0440000339  MEMB      100             0.0000000000
     11634       100  SAPS      C220            6.3051926891        0.3204773272       -0.9351861043  MEMB      100             0.0000000000
     11635       100  SAPS      H20R            6.6832152529        0.4376698876       -1.9733038062  MEMB      100             0.0000000000
     11636       100  SAPS      H20S            6.5987567043       -0.7114672104       -0.6466876009  MEMB      100             0.0000000000
     11637       100  SAPS      H20T            6.8594163831        1.0408002781       -0.2962100529  MEMB      100             0.0000000000
     11638       100  SAPS      C33            11.5882131020       -4.4783536502      -13.2862403082  MEMB      100             0.0000000000
     11639       100  SAPS      H3X            10.6864189805       -3.8308615229      -13.3291638431  MEMB      100             0.0000000000
     11640       100  SAPS      H3Y            12.4625982447       -3.8071340096      -13.4249326828  MEMB      100             0.0000000000
     11641       100  SAPS      C34            11.5809573290       -4.9934059350      -11.8544046204  MEMB      100             0.0000000000
     11642       100  SAPS      H4X            12.4333201623       -5.6850575602      -11.6828896743  MEMB      100             0.0000000000
     11643       100  SAPS      H4Y            10.6428780533       -5.5864988153      -11.8037190653  MEMB      100             0.0000000000
     11644       100  SAPS      C35            11.4677721842       -3.9073906085      -10.7264650868  MEMB      100             0.0000000000
     11645       100  SAPS      H5X            12.2992571130       -3.1715521828      -10.7651352448  MEMB      100             0.0000000000
     11646       100  SAPS      H5Y            11.7745699151       -4.4414067599       -9.8017907545  MEMB      100             0.0000000000
     11647       100  SAPS      C36            10.1526792414       -3.1623293944      -10.5352133258  MEMB      100             0.0000000000
     11648       100  SAPS      H6X             9.5652768158       -3.9296303677       -9.9870091414  MEMB      100             0.0000000000
     11649       100  SAPS      H6Y             9.6198968232       -2.8177043068      -11.4471877807  MEMB      100             0.0000000000
     11650       100  SAPS      C37            10.2162943144       -2.0735320735       -9.4935036833  MEMB      100             0.0000000000
     11651       100  SAPS      H7X            10.8141218388       -1.2374471969       -9.9152671078  MEMB      100             0.0000000000
     11652       100  SAPS      H7Y            10.7331780833       -2.5099474049       -8.6122008439  MEMB      100             0.0000000000
     11653       100  SAPS      C38             8.8684358285       -1.7658313783       -8.8155986836  MEMB      100             0.0000000000
     11654       100  SAPS      H8X             8.3727705753       -2.7031764145       -8.4839042072  MEMB      100             0.0000000000
     11655       100  SAPS      H8Y             8.1792953848       -1.3774762769       -9.5957184467  MEMB      100             0.0000000000
     11656       100  SAPS      C39             8.9443953756       -0.8237929179       -7.6235890172  MEMB      100             0.0000000000
     11657       100  SAPS      H9X             8.9191370002        0.1575936207       -8.1437459674  MEMB      100             0.0000000000
     11658       100  SAPS      H9Y             9.8720808288       -1.0038829947       -7.0393903219  MEMB      100             0.0000000000
     11659       100  SAPS      C310            7.8163927967       -0.9795541977       -6.6409304117  MEMB      100             0.0000000000
     11660       100  SAPS      H10X            7.6788437953       -1.9984824738       -6.2199948745  MEMB      100             0.0000000000
     11661       100  SAPS      H10Y            6.8770223548       -0.6344439714       -7.1234278598  MEMB      100             0.0000000000
     11662       100  SAPS      C311            8.0458855157       -0.2287037626       -5.2637750327  MEMB      100             0.0000000000
     11663       100  SAPS      H11X            7.0576736133       -0.3268140561       -4.7656458516  MEMB      100             0.0000000000
     11664       100  SAPS      H11Y            8.1896065412        0.8411427450       -5.5266317931  MEMB      100             0.0000000000
     11665       100  SAPS      C312            9.0424357106       -0.7598186161       -4.1961210575  MEMB      100             0.0000000000
     11666       100  SAPS      H12X            9.0624118404       -0.0639444282       -3.3302791414  MEMB      100             0.0000000000
     11667       100  SAPS      H12Y           10.0448420084       -0.7545226049       -4.6751564643  MEMB      100             0.0000000000
     11668       100  SAPS      C313            8.9070864120       -2.2327116223       -3.7331424931  MEMB      100             0.0000000000
     11669       100  SAPS      H13X            9.7775130342       -2.6063233630       -3.1525449577  MEMB      100             0.0000000000
     11670       100  SAPS      H13Y            8.7044017819       -2.8542094705       -4.6314630255  MEMB      100             0.0000000000
     11671       100  SAPS      C314            7.6016021705       -2.5418690378       -2.9130207629  MEMB      100             0.0000000000
     11672       100  SAPS      H14X            6.7344661345       -2.3433321180       -3.5785885694  MEMB      100             0.0000000000
     11673       100  SAPS      H14Y            7.5370303487       -1.8006799788       -2.0879204056  MEMB      100             0.0000000000
     11674       100  SAPS      C315            7.5364808115       -3.9542331913       -2.3600236686  MEMB      100             0.0000000000
     11675       100  SAPS      H15X            8.5445771414       -4.2493456843       -1.9981236458  MEMB      100             0.0000000000
     11676       100  SAPS      H15Y            7.3895199583       -4.6344976276       -3.2260266499  MEMB      100             0.0000000000
     11677       100  SAPS      C316            6.4989015612       -4.0620506098       -1.2254172069  MEMB      100             0.0000000000
     11678       100  SAPS      H16X            5.4389686852       -3.9824302984       -1.5487184452  MEMB      100             0.0000000000
     11679       100  SAPS      H16Y            6.6748183308       -3.3146673312       -0.4224276564  MEMB      100             0.0000000000
     11680       100  SAPS      C317            6.5373031618       -5.4193868050       -0.4046946105  MEMB      100             0.0000000000
     11681       100  SAPS      H17X            6.2693539354       -6.1874266414       -1.1614237587  MEMB      100             0.0000000000
     11682       100  SAPS      H17Y            5.6870789086       -5.4146855491        0.3104408214  MEMB      100             0.0000000000
     11683       100  SAPS      C318            7.8571105620       -5.9026505709        0.1500151661  MEMB      100             0.0000000000
     11684       100  SAPS      H18X            8.5282310434       -5.9485833379       -0.7341843486  MEMB      100             0.0000000000
     11685       100  SAPS      H18Y            7.7384891541       -6.8209271246        0.7640343895  MEMB      100             0.0000000000
     11686       100  SAPS      H18Z            8.3097335516       -5.1150835350        0.7896969793  MEMB      100             0.0000000000
     11687       101  OSM       N              -4.2755952003        9.8078957022      -22.4719440696  MEMB      101             0.0000000000
     11688       101  OSM       C15            -3.3696526685        8.6025738359      -22.6487636681  MEMB      101             0.0000000000
     11689       101  OSM       H15A           -3.9064679380        7.6969953426      -22.8899213472  MEMB      101             0.0000000000
     11690       101  OSM       H15B           -2.9887462030        8.3888450625      -21.6610236327  MEMB      101             0.0000000000
     11691       101  OSM       H15C           -2.6204537745        8.8664640804      -23.3805168868  MEMB      101             0.0000000000
     11692       101  OSM       C14            -3.4943492860       11.0859310159      -22.1821232527  MEMB      101             0.0000000000
     11693       101  OSM       H14A           -2.8481390098       11.2602409468      -23.0297249950  MEMB      101             0.0000000000
     11694       101  OSM       H14B           -2.9524619573       11.0024710452      -21.2516434311  MEMB      101             0.0000000000
     11695       101  OSM       H14C           -4.1810561698       11.8910637474      -21.9662647508  MEMB      101             0.0000000000
     11696       101  OSM       C13            -4.8476681586        9.9209903969      -23.8475144543  MEMB      101             0.0000000000
     11697       101  OSM       H13A           -5.5498068316       10.7188022588      -24.0396011414  MEMB      101             0.0000000000
     11698       101  OSM       H13B           -5.4678850233        9.0471363963      -23.9820889095  MEMB      101             0.0000000000
     11699       101  OSM       H13C           -4.0487181145        9.9660628718      -24.5728056826  MEMB      101             0.0000000000
     11700       101  OSM       C12            -5.3896543780        9.4378335110      -21.4468908584  MEMB      101             0.0000000000
     11701       101  OSM       H12A           -5.8168421916        8.4957906941      -21.7574803556  MEMB      101             0.0000000000
     11702       101  OSM       H12B           -6.1467315708       10.2058362291      -21.5052500547  MEMB      101             0.0000000000
     11703       101  OSM       C11            -4.8702598639        9.2761973469      -20.0027248907  MEMB      101             0.0000000000
     11704       101  OSM       H11A           -5.7826573226        9.2678595082      -19.3688618762  MEMB      101             0.0000000000
     11705       101  OSM       H11B           -4.1308121361       10.0547010903      -19.7172952430  MEMB      101             0.0000000000
     11706       101  OSM       P              -4.8145399470        6.6280222167      -19.7370823049  MEMB      101             0.0000000000
     11707       101  OSM       O13            -6.1473093032        6.7392039867      -20.4175695150  MEMB      101             0.0000000000
     11708       101  OSM       O14            -3.8049311734        5.7841102641      -20.3197273521  MEMB      101             0.0000000000
     11709       101  OSM       O11            -5.1374676178        6.3951467509      -18.2041944486  MEMB      101             0.0000000000
     11710       101  OSM       O12            -4.1263788563        8.0569514590      -19.7214651832  MEMB      101             0.0000000000
     11711       101  OSM       C1S            -4.6346675619        7.2057130732      -17.1455282609  MEMB      101             0.0000000000
     11712       101  OSM       H1S            -5.0205162705        8.2370872139      -17.2928679632  MEMB      101             0.0000000000
     11713       101  OSM       H1T            -3.5266027777        7.1667367603      -17.0748574263  MEMB      101             0.0000000000
     11714       101  OSM       NF             -5.0978144555        7.7131036328      -14.7200122129  MEMB      101             0.0000000000
     11715       101  OSM       HNF            -4.4310866720        7.4896050472      -14.0132371885  MEMB      101             0.0000000000
     11716       101  OSM       C2S            -5.2267717432        6.7041037240      -15.8297982161  MEMB      101             0.0000000000
     11717       101  OSM       H2S            -6.3165073453        6.6442660523      -16.0376846706  MEMB      101             0.0000000000
     11718       101  OSM       C3S            -4.6158493643        5.3782913460      -15.3004463922  MEMB      101             0.0000000000
     11719       101  OSM       H3S            -3.5459170510        5.5220969040      -15.0379855826  MEMB      101             0.0000000000
     11720       101  OSM       O3             -4.5578516877        4.3604781339      -16.3132129464  MEMB      101             0.0000000000
     11721       101  OSM       HO3            -5.0686577639        4.6358558372      -17.0779642116  MEMB      101             0.0000000000
     11722       101  OSM       C4S            -5.4478111318        4.9876669266      -14.0691878782  MEMB      101             0.0000000000
     11723       101  OSM       H4S            -5.0433410259        5.4905763664      -13.1784092093  MEMB      101             0.0000000000
     11724       101  OSM       C5S            -6.6155174149        4.3100270544      -14.0131762207  MEMB      101             0.0000000000
     11725       101  OSM       H5S            -7.0610631822        4.0842946068      -14.9932447945  MEMB      101             0.0000000000
     11726       101  OSM       C6S            -7.3971383751        3.9153387940      -12.7557314661  MEMB      101             0.0000000000
     11727       101  OSM       H6S            -7.3396016818        2.8060708450      -12.7788563853  MEMB      101             0.0000000000
     11728       101  OSM       H6T            -8.4750609244        4.1456869264      -12.8948123101  MEMB      101             0.0000000000
     11729       101  OSM       C7S            -7.0076385464        4.4103562607      -11.3499163900  MEMB      101             0.0000000000
     11730       101  OSM       H7S            -7.4687327589        5.4182730227      -11.2736465761  MEMB      101             0.0000000000
     11731       101  OSM       H7T            -5.8971397001        4.4210960390      -11.3183285178  MEMB      101             0.0000000000
     11732       101  OSM       C8S            -7.5878038795        3.5081275183      -10.2352110354  MEMB      101             0.0000000000
     11733       101  OSM       H8S            -6.9993424073        2.5667582318      -10.2783111663  MEMB      101             0.0000000000
     11734       101  OSM       H8T            -8.6706516118        3.3001785313      -10.3712964146  MEMB      101             0.0000000000
     11735       101  OSM       C9S            -7.5345831684        4.1328576582       -8.8964631509  MEMB      101             0.0000000000
     11736       101  OSM       H9S            -7.7774414874        3.3595873179       -8.1365983838  MEMB      101             0.0000000000
     11737       101  OSM       H9T            -8.2662590752        4.9314782974       -8.6491242393  MEMB      101             0.0000000000
     11738       101  OSM       C10S           -6.1586446713        4.6175598705       -8.4413438288  MEMB      101             0.0000000000
     11739       101  OSM       H10S           -6.0737300565        5.6348303391       -8.8798308643  MEMB      101             0.0000000000
     11740       101  OSM       H10T           -5.4124957008        3.8551282779       -8.7516353182  MEMB      101             0.0000000000
     11741       101  OSM       C11S           -5.9891138036        4.7813314808       -6.8729361250  MEMB      101             0.0000000000
     11742       101  OSM       H11S           -6.2663953869        3.8882523385       -6.2730646040  MEMB      101             0.0000000000
     11743       101  OSM       H11T           -6.5500035348        5.6638372682       -6.4975598240  MEMB      101             0.0000000000
     11744       101  OSM       C12S           -4.5038970848        5.0012089246       -6.4084390599  MEMB      101             0.0000000000
     11745       101  OSM       H12S           -3.9968571053        5.5951704828       -7.1986555379  MEMB      101             0.0000000000
     11746       101  OSM       H12T           -3.9268924222        4.0522580463       -6.3787913631  MEMB      101             0.0000000000
     11747       101  OSM       C13S           -4.4557710808        5.6748158409       -4.9841016236  MEMB      101             0.0000000000
     11748       101  OSM       H13S           -5.0823942503        5.1501292695       -4.2315266996  MEMB      101             0.0000000000
     11749       101  OSM       H13T           -4.8224914046        6.7227592488       -5.0247467730  MEMB      101             0.0000000000
     11750       101  OSM       C14S           -2.9827053616        5.8228948976       -4.6110349263  MEMB      101             0.0000000000
     11751       101  OSM       H14S           -2.4305949691        6.2694625083       -5.4654778818  MEMB      101             0.0000000000
     11752       101  OSM       H14T           -2.6624700869        4.7742551247       -4.4317993795  MEMB      101             0.0000000000
     11753       101  OSM       C15S           -2.7764993226        6.6490501604       -3.3201162821  MEMB      101             0.0000000000
     11754       101  OSM       H15S           -2.9197322904        6.0230439277       -2.4135186447  MEMB      101             0.0000000000
     11755       101  OSM       H15T           -3.5106699442        7.4803409657       -3.2547716711  MEMB      101             0.0000000000
     11756       101  OSM       C16S           -1.4362154852        7.2453528846       -3.1834162276  MEMB      101             0.0000000000
     11757       101  OSM       H16S           -1.1293753960        7.7935489212       -4.0997415721  MEMB      101             0.0000000000
     11758       101  OSM       H16T           -0.7445872068        6.3782279351       -3.1196551608  MEMB      101             0.0000000000
     11759       101  OSM       C17S           -1.1793861680        8.1964963916       -1.9661385621  MEMB      101             0.0000000000
     11760       101  OSM       H17S           -1.9301601272        9.0033874482       -2.1060892692  MEMB      101             0.0000000000
     11761       101  OSM       H17T           -0.1893570423        8.6775709788       -2.1169036004  MEMB      101             0.0000000000
     11762       101  OSM       C18S           -1.2609535836        7.4946608122       -0.5931105945  MEMB      101             0.0000000000
     11763       101  OSM       H18S           -0.4135767418        6.7825207688       -0.4975581422  MEMB      101             0.0000000000
     11764       101  OSM       H18T           -2.2833283090        7.1083576616       -0.3935092549  MEMB      101             0.0000000000
     11765       101  OSM       H18U           -0.9433894627        8.3156934800        0.0846635899  MEMB      101             0.0000000000
     11766       101  OSM       C1F            -5.7346927808        8.8693064821      -14.6257446289  MEMB      101             0.0000000000
     11767       101  OSM       OF             -6.6707846645        9.1814574229      -15.3180414985  MEMB      101             0.0000000000
     11768       101  OSM       C2F            -5.2083751960        9.9214815475      -13.6897539703  MEMB      101             0.0000000000
     11769       101  OSM       H2F            -5.1105417948       10.8531420628      -14.2870460152  MEMB      101             0.0000000000
     11770       101  OSM       H2G            -4.1963046735        9.6530491857      -13.3182991977  MEMB      101             0.0000000000
     11771       101  OSM       C3F            -6.2259507762       10.1460655296      -12.5612585201  MEMB      101             0.0000000000
     11772       101  OSM       H3F            -7.2642104632       10.3611406274      -12.8930429231  MEMB      101             0.0000000000
     11773       101  OSM       H3G            -5.9948664704       11.0568547884      -11.9684818027  MEMB      101             0.0000000000
     11774       101  OSM       C4F            -6.2618132483        8.8634989109      -11.6671646414  MEMB      101             0.0000000000
     11775       101  OSM       H4F            -5.2926184711        8.8655460836      -11.1240454622  MEMB      101             0.0000000000
     11776       101  OSM       H4G            -6.4116715268        7.8850061727      -12.1715608130  MEMB      101             0.0000000000
     11777       101  OSM       C5F            -7.4390085890        8.9834059368      -10.6950662167  MEMB      101             0.0000000000
     11778       101  OSM       H5F            -8.3668020027        8.9058071240      -11.3012828453  MEMB      101             0.0000000000
     11779       101  OSM       H5G            -7.5553317995       10.0192702433      -10.3106510621  MEMB      101             0.0000000000
     11780       101  OSM       C6F            -7.3158225360        8.0791317324       -9.4801577500  MEMB      101             0.0000000000
     11781       101  OSM       H6F            -6.2754105255        8.2557904436       -9.1328021454  MEMB      101             0.0000000000
     11782       101  OSM       H6G            -7.3427964771        6.9775860179       -9.6222506394  MEMB      101             0.0000000000
     11783       101  OSM       C7F            -8.4028883757        8.2827743847       -8.3027568741  MEMB      101             0.0000000000
     11784       101  OSM       H7F            -8.9520580816        7.3179440242       -8.2599072999  MEMB      101             0.0000000000
     11785       101  OSM       H7G            -9.1134919531        9.0803902927       -8.6079990001  MEMB      101             0.0000000000
     11786       101  OSM       C8F            -7.7842683107        8.6245846038       -6.9083465287  MEMB      101             0.0000000000
     11787       101  OSM       H8F            -7.5895214614        9.7166862335       -6.9692451556  MEMB      101             0.0000000000
     11788       101  OSM       H8G            -6.8208818436        8.0820774365       -6.7992892830  MEMB      101             0.0000000000
     11789       101  OSM       C9F            -8.9409887938        8.2399638061       -5.9445652695  MEMB      101             0.0000000000
     11790       101  OSM       H9F            -9.6543611189        7.4167915023       -6.0978205235  MEMB      101             0.0000000000
     11791       101  OSM       C10F           -9.3128632323        9.0108216704       -4.9211281062  MEMB      101             0.0000000000
     11792       101  OSM       H10F          -10.1868082532        8.6209812893       -4.3786843549  MEMB      101             0.0000000000
     11793       101  OSM       C11F           -8.8302067070       10.3392824671       -4.4334105525  MEMB      101             0.0000000000
     11794       101  OSM       H11F           -9.6630665244       11.0619937203       -4.5688877079  MEMB      101             0.0000000000
     11795       101  OSM       H11G           -8.0793207644       10.8473486539       -5.0755624982  MEMB      101             0.0000000000
     11796       101  OSM       C12F           -8.3902196054       10.3471455311       -2.9236491874  MEMB      101             0.0000000000
     11797       101  OSM       H12F           -9.2755996604       10.1835111801       -2.2727660977  MEMB      101             0.0000000000
     11798       101  OSM       H12G           -8.0179735757       11.3810776067       -2.7601298830  MEMB      101             0.0000000000
     11799       101  OSM       C13F           -7.2616283836        9.3773871226       -2.6439110878  MEMB      101             0.0000000000
     11800       101  OSM       H13F           -7.4109163761        8.3493584799       -3.0378539512  MEMB      101             0.0000000000
     11801       101  OSM       H13G           -7.1782079958        9.3535974994       -1.5363029691  MEMB      101             0.0000000000
     11802       101  OSM       C14F           -5.8961721472        9.8067169669       -3.2888515468  MEMB      101             0.0000000000
     11803       101  OSM       H14F           -5.9468537926       10.2912390167       -4.2873460817  MEMB      101             0.0000000000
     11804       101  OSM       H14G           -5.3201883615        8.8626080446       -3.3947866652  MEMB      101             0.0000000000
     11805       101  OSM       C15F           -5.0387237365       10.6831379892       -2.3626722321  MEMB      101             0.0000000000
     11806       101  OSM       H15F           -4.0040236527       10.8087082174       -2.7473119219  MEMB      101             0.0000000000
     11807       101  OSM       H15G           -4.8986272748       10.2130575233       -1.3658162441  MEMB      101             0.0000000000
     11808       101  OSM       C16F           -5.4306688851       12.1422658709       -2.1560218633  MEMB      101             0.0000000000
     11809       101  OSM       H16F           -6.3988530981       12.2469137520       -1.6212432334  MEMB      101             0.0000000000
     11810       101  OSM       H16G           -5.6177473598       12.5138533234       -3.1861894558  MEMB      101             0.0000000000
     11811       101  OSM       C17F           -4.4652655262       13.0596431860       -1.3270343948  MEMB      101             0.0000000000
     11812       101  OSM       H17F           -4.4293372380       12.7013272852       -0.2760153282  MEMB      101             0.0000000000
     11813       101  OSM       H17G           -4.7387586392       14.1315044741       -1.2239037526  MEMB      101             0.0000000000
     11814       101  OSM       C18F           -2.9831922388       13.1789427534       -1.8293225218  MEMB      101             0.0000000000
     11815       101  OSM       H18F           -2.8713052935       13.0256855376       -2.9239984666  MEMB      101             0.0000000000
     11816       101  OSM       H18G           -2.4049217238       12.4059457598       -1.2794146812  MEMB      101             0.0000000000
     11817       101  OSM       H18H           -2.4775892643       14.1389764989       -1.5905292953  MEMB      101             0.0000000000
     11818       102  POPC      N              -6.8255462085       -7.1472289182      -21.3758029812  MEMB      102             0.0000000000
     11819       102  POPC      C12            -6.6939836684       -8.2861146365      -20.3008558554  MEMB      102             0.0000000000
     11820       102  POPC      H12A           -5.9077535670       -8.9717304348      -20.5804503943  MEMB      102             0.0000000000
     11821       102  POPC      H12B           -7.6217524939       -8.8308410244      -20.3952921336  MEMB      102             0.0000000000
     11822       102  POPC      C13            -5.4762764402       -6.5690480069      -21.5332828721  MEMB      102             0.0000000000
     11823       102  POPC      H13A           -4.8200579670       -7.3222684600      -21.9436927589  MEMB      102             0.0000000000
     11824       102  POPC      H13B           -5.5919429121       -5.7204170898      -22.1911939508  MEMB      102             0.0000000000
     11825       102  POPC      H13C           -5.1999359364       -6.1106459836      -20.5952511096  MEMB      102             0.0000000000
     11826       102  POPC      C14            -7.1632673796       -7.8555154460      -22.7445042794  MEMB      102             0.0000000000
     11827       102  POPC      H14A           -7.2639378629       -7.0783394142      -23.4876484937  MEMB      102             0.0000000000
     11828       102  POPC      H14B           -6.2853694364       -8.4562502566      -22.9310867904  MEMB      102             0.0000000000
     11829       102  POPC      H14C           -8.0099794510       -8.4837698802      -22.5104636124  MEMB      102             0.0000000000
     11830       102  POPC      C15            -7.8862996092       -6.1630770630      -21.0202241959  MEMB      102             0.0000000000
     11831       102  POPC      H15A           -8.8505997344       -6.6494132220      -21.0186835473  MEMB      102             0.0000000000
     11832       102  POPC      H15B           -7.8842407150       -5.3217343600      -21.6973787383  MEMB      102             0.0000000000
     11833       102  POPC      H15C           -7.5792025820       -5.8381496959      -20.0371098588  MEMB      102             0.0000000000
     11834       102  POPC      C11            -6.3535605865       -8.0264891275      -18.8724301932  MEMB      102             0.0000000000
     11835       102  POPC      H11A           -5.5050041198       -7.3093713135      -18.8762936147  MEMB      102             0.0000000000
     11836       102  POPC      H11B           -5.9399318160       -8.9127579962      -18.3454010389  MEMB      102             0.0000000000
     11837       102  POPC      P              -7.1368228024       -7.2825555704      -16.5609816046  MEMB      102             0.0000000000
     11838       102  POPC      O13            -7.4061013394       -8.6467001439      -16.1077788705  MEMB      102             0.0000000000
     11839       102  POPC      O14            -8.0744260343       -6.2147498595      -16.0016732904  MEMB      102             0.0000000000
     11840       102  POPC      O12            -7.3429735026       -7.3793018329      -18.2074256269  MEMB      102             0.0000000000
     11841       102  POPC      O11            -5.5845107679       -6.9299324303      -16.2750402480  MEMB      102             0.0000000000
     11842       102  POPC      C1             -5.0301401102       -5.8086468042      -16.9912099638  MEMB      102             0.0000000000
     11843       102  POPC      HA             -5.6117749121       -5.3804594208      -17.8354123158  MEMB      102             0.0000000000
     11844       102  POPC      HB             -4.1061835480       -6.2256979179      -17.4458458454  MEMB      102             0.0000000000
     11845       102  POPC      C2             -4.4469986440       -4.6448080724      -16.0875921132  MEMB      102             0.0000000000
     11846       102  POPC      HS             -3.4534126956       -4.2392298464      -16.3750197337  MEMB      102             0.0000000000
     11847       102  POPC      O21            -4.2190037345       -5.1750810697      -14.7860800133  MEMB      102             0.0000000000
     11848       102  POPC      C21            -3.4101024101       -6.1536897313      -14.5062259935  MEMB      102             0.0000000000
     11849       102  POPC      O22            -2.6900543378       -6.8007006431      -15.3053625657  MEMB      102             0.0000000000
     11850       102  POPC      C22            -3.3420424823       -6.2321773477      -13.0110223767  MEMB      102             0.0000000000
     11851       102  POPC      H2R            -4.3324389880       -5.9551676297      -12.5906638763  MEMB      102             0.0000000000
     11852       102  POPC      H2S            -2.5951197239       -5.5240638658      -12.5926894272  MEMB      102             0.0000000000
     11853       102  POPC      C3             -5.3232681778       -3.4137495769      -15.9267494735  MEMB      102             0.0000000000
     11854       102  POPC      HX             -5.4570154263       -2.8695275020      -16.8860484349  MEMB      102             0.0000000000
     11855       102  POPC      HY             -4.7248174937       -2.6859573776      -15.3381104169  MEMB      102             0.0000000000
     11856       102  POPC      O31            -6.6370423298       -3.7408975973      -15.4211763242  MEMB      102             0.0000000000
     11857       102  POPC      C31            -7.3209628617       -2.7838498314      -14.7738663560  MEMB      102             0.0000000000
     11858       102  POPC      O32            -6.8804223199       -1.7221246954      -14.3930318783  MEMB      102             0.0000000000
     11859       102  POPC      C32            -8.7945461102       -3.2011299232      -14.5493364475  MEMB      102             0.0000000000
     11860       102  POPC      H2X            -8.9710335770       -4.1875509250      -15.0290723897  MEMB      102             0.0000000000
     11861       102  POPC      H2Y            -9.3882782525       -2.4522416458      -15.1158781170  MEMB      102             0.0000000000
     11862       102  POPC      C23            -2.8284666084       -7.6027922346      -12.4650767310  MEMB      102             0.0000000000
     11863       102  POPC      H3R            -2.6688289634       -7.5985440127      -11.3656138577  MEMB      102             0.0000000000
     11864       102  POPC      H3S            -1.9815610588       -8.0642066012      -13.0165922627  MEMB      102             0.0000000000
     11865       102  POPC      C24            -3.9996360636       -8.6765278318      -12.6462484377  MEMB      102             0.0000000000
     11866       102  POPC      H4R            -3.6528647515       -9.6615444969      -12.2670218158  MEMB      102             0.0000000000
     11867       102  POPC      H4S            -4.3005483347       -8.7502008899      -13.7131811281  MEMB      102             0.0000000000
     11868       102  POPC      C25            -5.3176998056       -8.2175900794      -11.8809463821  MEMB      102             0.0000000000
     11869       102  POPC      H5R            -5.7183331830       -7.2689224924      -12.2978918881  MEMB      102             0.0000000000
     11870       102  POPC      H5S            -5.1422991024       -8.0433114384      -10.7978108240  MEMB      102             0.0000000000
     11871       102  POPC      C26            -6.4246138200       -9.3139060766      -11.9751392569  MEMB      102             0.0000000000
     11872       102  POPC      H6R            -6.0921044524      -10.2146912996      -11.4162616754  MEMB      102             0.0000000000
     11873       102  POPC      H6S            -6.6187978253       -9.4670501937      -13.0582644261  MEMB      102             0.0000000000
     11874       102  POPC      C27            -7.7454180912       -8.7278435372      -11.4278516737  MEMB      102             0.0000000000
     11875       102  POPC      H7R            -8.5875196667       -9.4137690661      -11.6617148677  MEMB      102             0.0000000000
     11876       102  POPC      H7S            -8.0334820766       -7.8025049000      -11.9710721251  MEMB      102             0.0000000000
     11877       102  POPC      C28            -7.7694919094       -8.4399573639       -9.8698297560  MEMB      102             0.0000000000
     11878       102  POPC      H8R            -7.0012571704       -7.6492669958       -9.7321883998  MEMB      102             0.0000000000
     11879       102  POPC      H8S            -7.4122263312       -9.3567185744       -9.3538538609  MEMB      102             0.0000000000
     11880       102  POPC      C29            -9.0594011250       -7.8603139086       -9.4471186879  MEMB      102             0.0000000000
     11881       102  POPC      H91            -9.3590271064       -6.9407911758       -9.9712391632  MEMB      102             0.0000000000
     11882       102  POPC      C210           -9.9214231824       -8.2720929550       -8.5718609530  MEMB      102             0.0000000000
     11883       102  POPC      H101          -10.9001297088       -7.7700129265       -8.5788673087  MEMB      102             0.0000000000
     11884       102  POPC      C211           -9.8182908691       -9.4667852148       -7.7155632354  MEMB      102             0.0000000000
     11885       102  POPC      H11R           -8.9122977662      -10.0672078189       -7.9457602091  MEMB      102             0.0000000000
     11886       102  POPC      H11S          -10.7425209721      -10.0096644464       -8.0078007034  MEMB      102             0.0000000000
     11887       102  POPC      C212           -9.6109971246       -9.1916528794       -6.2789193219  MEMB      102             0.0000000000
     11888       102  POPC      H12R           -8.7832512309       -8.4881466456       -6.0460316185  MEMB      102             0.0000000000
     11889       102  POPC      H12S           -9.3626199353      -10.1428248350       -5.7613279344  MEMB      102             0.0000000000
     11890       102  POPC      C213          -10.8283818024       -8.6753807696       -5.5576476415  MEMB      102             0.0000000000
     11891       102  POPC      H13R          -10.7692627540       -8.9785507844       -4.4904481544  MEMB      102             0.0000000000
     11892       102  POPC      H13S          -11.8010585945       -9.0981395277       -5.8885489190  MEMB      102             0.0000000000
     11893       102  POPC      C214          -10.9149331213       -7.1032835404       -5.3967501789  MEMB      102             0.0000000000
     11894       102  POPC      H14R          -12.0040875401       -6.9669614017       -5.2250551027  MEMB      102             0.0000000000
     11895       102  POPC      H14S          -10.5906113355       -6.5644459324       -6.3126052318  MEMB      102             0.0000000000
     11896       102  POPC      C215          -10.1013834341       -6.4556212432       -4.1895294160  MEMB      102             0.0000000000
     11897       102  POPC      H15R          -10.4819163021       -7.1370469038       -3.3988498535  MEMB      102             0.0000000000
     11898       102  POPC      H15S          -10.5104892121       -5.4236886403       -4.1440470182  MEMB      102             0.0000000000
     11899       102  POPC      C216           -8.5451995869       -6.4713570595       -4.3235054719  MEMB      102             0.0000000000
     11900       102  POPC      H16R           -8.2320328398       -5.9007591861       -5.2238750181  MEMB      102             0.0000000000
     11901       102  POPC      H16S           -8.1338135801       -7.5024027546       -4.2784800360  MEMB      102             0.0000000000
     11902       102  POPC      C217           -7.8851750007       -5.8261925160       -3.0658720506  MEMB      102             0.0000000000
     11903       102  POPC      H17R           -6.7986686688       -5.7613381181       -3.2886247064  MEMB      102             0.0000000000
     11904       102  POPC      H17S           -7.9191305773       -6.5953120714       -2.2648584427  MEMB      102             0.0000000000
     11905       102  POPC      C218           -8.3848395300       -4.4623547961       -2.6653336974  MEMB      102             0.0000000000
     11906       102  POPC      H18R           -9.1019447705       -4.6612918127       -1.8404056208  MEMB      102             0.0000000000
     11907       102  POPC      H18S           -8.7982982591       -3.8557990506       -3.4992782214  MEMB      102             0.0000000000
     11908       102  POPC      H18T           -7.4696246779       -3.8956870892       -2.3903969099  MEMB      102             0.0000000000
     11909       102  POPC      C33            -9.2254141803       -2.9334125555      -13.1334611471  MEMB      102             0.0000000000
     11910       102  POPC      H3X           -10.3225979528       -3.0928709028      -13.2047480825  MEMB      102             0.0000000000
     11911       102  POPC      H3Y            -9.0313776479       -1.9355698660      -12.6851524188  MEMB      102             0.0000000000
     11912       102  POPC      C34            -8.7342300062       -3.9694310145      -12.0626796393  MEMB      102             0.0000000000
     11913       102  POPC      H4X            -8.4905613259       -4.9376109188      -12.5500955829  MEMB      102             0.0000000000
     11914       102  POPC      H4Y            -9.6238799680       -4.0078157052      -11.3983221570  MEMB      102             0.0000000000
     11915       102  POPC      C35            -7.6193063172       -3.4332708955      -11.1738125132  MEMB      102             0.0000000000
     11916       102  POPC      H5X            -7.8659637629       -2.4644429269      -10.6891958389  MEMB      102             0.0000000000
     11917       102  POPC      H5Y            -6.7582014784       -3.2276777198      -11.8450431943  MEMB      102             0.0000000000
     11918       102  POPC      C36            -7.2496403457       -4.4091451294      -10.0591999236  MEMB      102             0.0000000000
     11919       102  POPC      H6X            -6.8504211398       -5.3740755656      -10.4384813192  MEMB      102             0.0000000000
     11920       102  POPC      H6Y            -8.1695345240       -4.6470768641       -9.4834364003  MEMB      102             0.0000000000
     11921       102  POPC      C37            -6.2462729007       -3.9737504247       -9.0146966939  MEMB      102             0.0000000000
     11922       102  POPC      H7X            -6.7883238830       -3.4264513644       -8.2140935990  MEMB      102             0.0000000000
     11923       102  POPC      H7Y            -5.4267610181       -3.3301564647       -9.4000647739  MEMB      102             0.0000000000
     11924       102  POPC      C38            -5.4949716565       -5.0674455809       -8.2317817076  MEMB      102             0.0000000000
     11925       102  POPC      H8X            -5.0360504761       -5.8010019379       -8.9286369780  MEMB      102             0.0000000000
     11926       102  POPC      H8Y            -6.3079643941       -5.6867398188       -7.7960773623  MEMB      102             0.0000000000
     11927       102  POPC      C39            -4.4183570620       -4.5614670546       -7.2842052947  MEMB      102             0.0000000000
     11928       102  POPC      H9X            -4.8848150802       -3.9224465516       -6.5042107967  MEMB      102             0.0000000000
     11929       102  POPC      H9Y            -3.6304476472       -3.9133749382       -7.7240871984  MEMB      102             0.0000000000
     11930       102  POPC      C310           -3.7588364019       -5.7098122092       -6.4201082185  MEMB      102             0.0000000000
     11931       102  POPC      H10X           -3.2503796766       -5.2180231960       -5.5634072857  MEMB      102             0.0000000000
     11932       102  POPC      H10Y           -2.9358500076       -6.1277906832       -7.0384182510  MEMB      102             0.0000000000
     11933       102  POPC      C311           -4.5780054553       -6.8620800427       -5.9720528341  MEMB      102             0.0000000000
     11934       102  POPC      H11X           -4.7812798058       -7.5787136714       -6.7963319275  MEMB      102             0.0000000000
     11935       102  POPC      H11Y           -5.5901047317       -6.5562631150       -5.6308009308  MEMB      102             0.0000000000
     11936       102  POPC      C312           -3.8823138252       -7.5586691309       -4.8134582701  MEMB      102             0.0000000000
     11937       102  POPC      H12X           -3.6709491278       -6.7140406228       -4.1233508447  MEMB      102             0.0000000000
     11938       102  POPC      H12Y           -2.8617385048       -7.9460589825       -5.0200402072  MEMB      102             0.0000000000
     11939       102  POPC      C313           -4.8182341078       -8.5615038226       -4.0654879426  MEMB      102             0.0000000000
     11940       102  POPC      H13X           -5.1632214977       -9.2748772880       -4.8442071244  MEMB      102             0.0000000000
     11941       102  POPC      H13Y           -5.7466153681       -8.0387239019       -3.7506384906  MEMB      102             0.0000000000
     11942       102  POPC      C314           -4.2264995553       -9.2964536512       -2.8846704350  MEMB      102             0.0000000000
     11943       102  POPC      H14X           -3.3051179575       -9.8578285213       -3.1496910768  MEMB      102             0.0000000000
     11944       102  POPC      H14Y           -4.9562153556      -10.0689085396       -2.5604030448  MEMB      102             0.0000000000
     11945       102  POPC      C315           -4.0104838033       -8.5928122401       -1.5353364779  MEMB      102             0.0000000000
     11946       102  POPC      H15X           -3.0863162496       -7.9763799046       -1.5510425052  MEMB      102             0.0000000000
     11947       102  POPC      H15Y           -3.8336897077       -9.4183528563       -0.8131541538  MEMB      102             0.0000000000
     11948       102  POPC      C316           -5.1543137856       -7.7277165946       -1.0580768333  MEMB      102             0.0000000000
     11949       102  POPC      H16X           -5.3657928373       -6.8073400677       -1.6433152021  MEMB      102             0.0000000000
     11950       102  POPC      H16Y           -4.9005770529       -7.3597568008       -0.0409513642  MEMB      102             0.0000000000
     11951       102  POPC      H16Z           -6.1315159968       -8.2561031700       -1.0437854262  MEMB      102             0.0000000000
     11952       103  SAPC      N              10.1616970565        4.9955501878      -22.1261657676  MEMB      103             0.0000000000
     11953       103  SAPC      C12            10.8936277473        5.7012201461      -20.9062639281  MEMB      103             0.0000000000
     11954       103  SAPC      H12A           10.8329555583        6.7576410304      -21.1223511078  MEMB      103             0.0000000000
     11955       103  SAPC      H12B           11.9055523214        5.3594328143      -20.7462947298  MEMB      103             0.0000000000
     11956       103  SAPC      C13            10.9559506373        4.8638622791      -23.4258894187  MEMB      103             0.0000000000
     11957       103  SAPC      H13A           10.3199610263        4.3231735603      -24.1111436871  MEMB      103             0.0000000000
     11958       103  SAPC      H13B           11.0695682727        5.8601406241      -23.8270383121  MEMB      103             0.0000000000
     11959       103  SAPC      H13C           11.9121614988        4.4216260760      -23.1882172215  MEMB      103             0.0000000000
     11960       103  SAPC      C14             9.7463984610        3.6361270258      -21.7244103724  MEMB      103             0.0000000000
     11961       103  SAPC      H14A           10.5687917261        2.9491348455      -21.5898332134  MEMB      103             0.0000000000
     11962       103  SAPC      H14B            9.3435808743        3.6784747524      -20.7232386636  MEMB      103             0.0000000000
     11963       103  SAPC      H14C            9.1573925043        3.2223514134      -22.5295574312  MEMB      103             0.0000000000
     11964       103  SAPC      C15             8.9228862674        5.8201815580      -22.4004422958  MEMB      103             0.0000000000
     11965       103  SAPC      H15A            9.2010363290        6.7988589109      -22.7626897103  MEMB      103             0.0000000000
     11966       103  SAPC      H15B            8.2243682195        5.3275552057      -23.0605875158  MEMB      103             0.0000000000
     11967       103  SAPC      H15C            8.3974759949        5.9259781557      -21.4628116923  MEMB      103             0.0000000000
     11968       103  SAPC      C11            10.3738081225        5.4542402068      -19.4388560759  MEMB      103             0.0000000000
     11969       103  SAPC      H11A           11.0706016954        5.9644757736      -18.7399574109  MEMB      103             0.0000000000
     11970       103  SAPC      H11B           10.5674939075        4.3750102989      -19.2597763639  MEMB      103             0.0000000000
     11971       103  SAPC      P               8.3190078250        6.1460108620      -17.9475969663  MEMB      103             0.0000000000
     11972       103  SAPC      O13             6.8795984867        6.1159070119      -17.9720727674  MEMB      103             0.0000000000
     11973       103  SAPC      O14             8.9871055012        5.3466910681      -16.8877632120  MEMB      103             0.0000000000
     11974       103  SAPC      O12             8.9661879028        5.6296052359      -19.3572641598  MEMB      103             0.0000000000
     11975       103  SAPC      O11             8.8686553693        7.5964258044      -17.8132750228  MEMB      103             0.0000000000
     11976       103  SAPC      C1              9.0979708657        8.5505904899      -18.8182520108  MEMB      103             0.0000000000
     11977       103  SAPC      HA              9.6896178578        8.1115975647      -19.6498529057  MEMB      103             0.0000000000
     11978       103  SAPC      HB              8.1247191817        8.8356519386      -19.2719503496  MEMB      103             0.0000000000
     11979       103  SAPC      C2              9.7740954476        9.8262279794      -18.1847427152  MEMB      103             0.0000000000
     11980       103  SAPC      HS             10.2401137937       10.3793720651      -19.0280572476  MEMB      103             0.0000000000
     11981       103  SAPC      O21            10.7500128762        9.5069330857      -17.1625503202  MEMB      103             0.0000000000
     11982       103  SAPC      C21            11.9658655617        9.2008284168      -17.5211971504  MEMB      103             0.0000000000
     11983       103  SAPC      O22            12.3678573072        9.1678287995      -18.6598299613  MEMB      103             0.0000000000
     11984       103  SAPC      C22            12.8989804624        8.9452353404      -16.3742406182  MEMB      103             0.0000000000
     11985       103  SAPC      H2R            13.8869309354        9.2692421126      -16.7657687747  MEMB      103             0.0000000000
     11986       103  SAPC      H2S            12.7376665277        9.6028050432      -15.4933879459  MEMB      103             0.0000000000
     11987       103  SAPC      C3              8.6156326727       10.7048953653      -17.6010285180  MEMB      103             0.0000000000
     11988       103  SAPC      HX              7.9362053227       10.9359643194      -18.4491479028  MEMB      103             0.0000000000
     11989       103  SAPC      HY              8.9126725288       11.6873349686      -17.1757046229  MEMB      103             0.0000000000
     11990       103  SAPC      O31             7.8410437494        9.8614026378      -16.6376182962  MEMB      103             0.0000000000
     11991       103  SAPC      C31             7.6165297407       10.3314216723      -15.3987734169  MEMB      103             0.0000000000
     11992       103  SAPC      O32             8.0570261373       11.3986324471      -14.9607643364  MEMB      103             0.0000000000
     11993       103  SAPC      C32             6.6009797445        9.4169337486      -14.7612801203  MEMB      103             0.0000000000
     11994       103  SAPC      H2X             5.7848861089        9.2195427039      -15.4888440600  MEMB      103             0.0000000000
     11995       103  SAPC      H2Y             6.0636039135        9.9457680661      -13.9452641274  MEMB      103             0.0000000000
     11996       103  SAPC      C23            13.0452319941        7.4015761912      -15.9463946158  MEMB      103             0.0000000000
     11997       103  SAPC      H3R            13.7728566548        7.2244608512      -15.1257163189  MEMB      103             0.0000000000
     11998       103  SAPC      H3S            13.5340678293        6.8885675363      -16.8020714701  MEMB      103             0.0000000000
     11999       103  SAPC      C24            11.6723489379        6.7041769912      -15.4828348603  MEMB      103             0.0000000000
     12000       103  SAPC      H4R            11.9290183704        5.6597811151      -15.2041250914  MEMB      103             0.0000000000
     12001       103  SAPC      H4S            11.0693744283        6.5864847446      -16.4085190358  MEMB      103             0.0000000000
     12002       103  SAPC      C25            10.9769505085        7.4021881610      -14.4433144467  MEMB      103             0.0000000000
     12003       103  SAPC      H5R            10.4725176045        8.2966741632      -14.8375761105  MEMB      103             0.0000000000
     12004       103  SAPC      C26            10.8263623739        7.0020812537      -13.1393975680  MEMB      103             0.0000000000
     12005       103  SAPC      H6R            10.2585740567        7.6644779218      -12.4694372284  MEMB      103             0.0000000000
     12006       103  SAPC      C27            11.3506897697        5.7462804965      -12.4754596000  MEMB      103             0.0000000000
     12007       103  SAPC      H7R            11.7336881027        6.0332214557      -11.4728142713  MEMB      103             0.0000000000
     12008       103  SAPC      H7S            12.1519097647        5.2141414857      -13.0315137559  MEMB      103             0.0000000000
     12009       103  SAPC      C28            10.3036123662        4.7256141035      -12.2337240137  MEMB      103             0.0000000000
     12010       103  SAPC      H8R             9.8187513697        4.2828463653      -13.1162579366  MEMB      103             0.0000000000
     12011       103  SAPC      C29             9.9037770203        4.2058286948      -11.0822938244  MEMB      103             0.0000000000
     12012       103  SAPC      H9R             9.0918088283        3.4643422735      -11.1123865656  MEMB      103             0.0000000000
     12013       103  SAPC      C210           10.4604981901        4.6252576672       -9.7343344956  MEMB      103             0.0000000000
     12014       103  SAPC      H10R           10.6541964281        5.7177760982       -9.6777181175  MEMB      103             0.0000000000
     12015       103  SAPC      H10S           11.3763660769        4.0303878598       -9.5302831040  MEMB      103             0.0000000000
     12016       103  SAPC      C211            9.5216134231        4.4706196318       -8.5354046662  MEMB      103             0.0000000000
     12017       103  SAPC      H11R            8.5753050204        4.0012694243       -8.8423425106  MEMB      103             0.0000000000
     12018       103  SAPC      C212            9.8227875155        4.7475460855       -7.2514603180  MEMB      103             0.0000000000
     12019       103  SAPC      H12R            9.0702105016        4.5361665489       -6.4775444136  MEMB      103             0.0000000000
     12020       103  SAPC      C213           11.0847117211        5.2734537641       -6.6385229625  MEMB      103             0.0000000000
     12021       103  SAPC      H13R           10.8572808187        6.2259042881       -6.1137047055  MEMB      103             0.0000000000
     12022       103  SAPC      H13S           11.7801877355        5.6775496406       -7.4049044541  MEMB      103             0.0000000000
     12023       103  SAPC      C214           11.8070850639        4.2782798955       -5.8322319024  MEMB      103             0.0000000000
     12024       103  SAPC      H14R           11.7000904389        3.2402778938       -6.1802304206  MEMB      103             0.0000000000
     12025       103  SAPC      C215           12.6795298754        4.6672263444       -4.9341286119  MEMB      103             0.0000000000
     12026       103  SAPC      H15R           13.2601241678        3.8923944842       -4.4120694638  MEMB      103             0.0000000000
     12027       103  SAPC      C216           13.0400934868        6.0562854318       -4.5481388485  MEMB      103             0.0000000000
     12028       103  SAPC      H16R           13.0650453110        6.7583847528       -5.4088100246  MEMB      103             0.0000000000
     12029       103  SAPC      H16S           14.0516678034        6.2021960419       -4.1125376656  MEMB      103             0.0000000000
     12030       103  SAPC      C217           12.1414879841        6.4672742673       -3.4245959642  MEMB      103             0.0000000000
     12031       103  SAPC      H17R           11.0920349186        6.7081745847       -3.6983403881  MEMB      103             0.0000000000
     12032       103  SAPC      H17S           12.4787791551        7.5058817393       -3.2200239926  MEMB      103             0.0000000000
     12033       103  SAPC      C218           12.2211412219        5.5155666122       -2.2156852721  MEMB      103             0.0000000000
     12034       103  SAPC      H18R           13.2483906830        5.4898930117       -1.7932867861  MEMB      103             0.0000000000
     12035       103  SAPC      H18S           11.9118174675        4.4970258567       -2.5338291732  MEMB      103             0.0000000000
     12036       103  SAPC      C219           11.3219293826        6.0384154810       -1.0815011564  MEMB      103             0.0000000000
     12037       103  SAPC      H19R           11.6249682699        7.0470367535       -0.7277050549  MEMB      103             0.0000000000
     12038       103  SAPC      H19S           11.4302961738        5.4067234550       -0.1740080926  MEMB      103             0.0000000000
     12039       103  SAPC      C220            9.7930266644        6.2298273543       -1.4427614949  MEMB      103             0.0000000000
     12040       103  SAPC      H20R            9.5911065781        5.6002416802       -2.3356062019  MEMB      103             0.0000000000
     12041       103  SAPC      H20S            9.5396746426        7.2687054222       -1.7442019803  MEMB      103             0.0000000000
     12042       103  SAPC      H20T            9.1698119454        5.7737893111       -0.6440414132  MEMB      103             0.0000000000
     12043       103  SAPC      C33             7.3444084082        8.1770261510      -14.2290627950  MEMB      103             0.0000000000
     12044       103  SAPC      H3X             8.0268772405        8.5235442075      -13.4237784784  MEMB      103             0.0000000000
     12045       103  SAPC      H3Y             7.9322629600        7.6131694639      -14.9845850304  MEMB      103             0.0000000000
     12046       103  SAPC      C34             6.4563956496        7.1073638155      -13.5541951032  MEMB      103             0.0000000000
     12047       103  SAPC      H4X             5.8693015196        6.5879788740      -14.3415202270  MEMB      103             0.0000000000
     12048       103  SAPC      H4Y             5.8863480570        7.7606484738      -12.8595110923  MEMB      103             0.0000000000
     12049       103  SAPC      C35             7.1598000461        6.0262607410      -12.8374423048  MEMB      103             0.0000000000
     12050       103  SAPC      H5X             7.8235752318        6.3986340099      -12.0280836419  MEMB      103             0.0000000000
     12051       103  SAPC      H5Y             7.7939025707        5.4791393415      -13.5674377006  MEMB      103             0.0000000000
     12052       103  SAPC      C36             6.1979407104        4.9940254809      -12.0772341551  MEMB      103             0.0000000000
     12053       103  SAPC      H6X             6.7046781492        4.0591001844      -11.7555930953  MEMB      103             0.0000000000
     12054       103  SAPC      H6Y             5.4182341953        4.5392162719      -12.7249431390  MEMB      103             0.0000000000
     12055       103  SAPC      C37             5.5182163193        5.6353455597      -10.8129055196  MEMB      103             0.0000000000
     12056       103  SAPC      H7X             4.7358626192        4.8917630718      -10.5496014053  MEMB      103             0.0000000000
     12057       103  SAPC      H7Y             4.9869665909        6.5482024931      -11.1575610290  MEMB      103             0.0000000000
     12058       103  SAPC      C38             6.3469960727        6.0858637489       -9.6936182122  MEMB      103             0.0000000000
     12059       103  SAPC      H8X             7.4104956358        5.8405798542       -9.9012842372  MEMB      103             0.0000000000
     12060       103  SAPC      H8Y             5.8374058928        5.5325392992       -8.8760173843  MEMB      103             0.0000000000
     12061       103  SAPC      C39             6.1042356155        7.5913131877       -9.3178018350  MEMB      103             0.0000000000
     12062       103  SAPC      H9X             5.1380501886        7.7272402313       -8.7864533994  MEMB      103             0.0000000000
     12063       103  SAPC      H9Y             6.0135887921        8.1368751858      -10.2813711419  MEMB      103             0.0000000000
     12064       103  SAPC      C310            7.2326967057        8.2557256207       -8.4810791282  MEMB      103             0.0000000000
     12065       103  SAPC      H10X            7.4111989891        7.6923239850       -7.5403148129  MEMB      103             0.0000000000
     12066       103  SAPC      H10Y            6.9503717291        9.3255045835       -8.3801504429  MEMB      103             0.0000000000
     12067       103  SAPC      C311            8.6308835422        8.3388991238       -9.2918551722  MEMB      103             0.0000000000
     12068       103  SAPC      H11X            8.4301398708        9.0812823282      -10.0936589288  MEMB      103             0.0000000000
     12069       103  SAPC      H11Y            8.7391711435        7.3115481850       -9.7006878879  MEMB      103             0.0000000000
     12070       103  SAPC      C312            9.7234191774        8.8826347681       -8.3871484037  MEMB      103             0.0000000000
     12071       103  SAPC      H12X           10.7067979771        8.7481891409       -8.8863589081  MEMB      103             0.0000000000
     12072       103  SAPC      H12Y            9.8611830512        8.3086609880       -7.4459273653  MEMB      103             0.0000000000
     12073       103  SAPC      C313            9.6565976964       10.4411539958       -8.0386629513  MEMB      103             0.0000000000
     12074       103  SAPC      H13X            9.0894526112       10.5237795804       -7.0869058684  MEMB      103             0.0000000000
     12075       103  SAPC      H13Y            9.2532894782       11.1150436769       -8.8244978859  MEMB      103             0.0000000000
     12076       103  SAPC      C314           11.1011714532       10.8614671527       -7.7908357741  MEMB      103             0.0000000000
     12077       103  SAPC      H14X           11.0871872859       11.8900206281       -7.3710698801  MEMB      103             0.0000000000
     12078       103  SAPC      H14Y           11.6408445946       10.8794835722       -8.7617883832  MEMB      103             0.0000000000
     12079       103  SAPC      C315           11.9318428685       10.1175269199       -6.7239022390  MEMB      103             0.0000000000
     12080       103  SAPC      H15X           12.8820059185       10.6649210799       -6.5453780351  MEMB      103             0.0000000000
     12081       103  SAPC      H15Y           12.1458032354        9.1095893467       -7.1393576364  MEMB      103             0.0000000000
     12082       103  SAPC      C316           11.1933028270       10.0060673491       -5.3899243603  MEMB      103             0.0000000000
     12083       103  SAPC      H16X           11.8999682483        9.5468443249       -4.6660057588  MEMB      103             0.0000000000
     12084       103  SAPC      H16Y           10.3318001557        9.3115281233       -5.2911841747  MEMB      103             0.0000000000
     12085       103  SAPC      C317           10.8913791753       11.3870664104       -4.7243362577  MEMB      103             0.0000000000
     12086       103  SAPC      H17X           10.2328485868       11.9562157192       -5.4147906093  MEMB      103             0.0000000000
     12087       103  SAPC      H17Y           11.8318027181       11.9261205027       -4.4807265521  MEMB      103             0.0000000000
     12088       103  SAPC      C318           10.1369387898       11.3314391449       -3.3855424380  MEMB      103             0.0000000000
     12089       103  SAPC      H18X            9.5608657617       12.2433568106       -3.1193351419  MEMB      103             0.0000000000
     12090       103  SAPC      H18Y           10.8570447063       11.1638524192       -2.5562760339  MEMB      103             0.0000000000
     12091       103  SAPC      H18Z            9.4682787538       10.4492544821       -3.2908591144  MEMB      103             0.0000000000
     12092       104  CHL1      C3              3.2049073667       10.8046069283      -17.3454600000  MEMB      104             0.0000000000
     12093       104  CHL1      H3              2.5573074682       11.6747645126      -17.1051100000  MEMB      104             0.0000000000
     12094       104  CHL1      O3              3.7320079933       10.9556784717      -18.6545400000  MEMB      104             0.0000000000
     12095       104  CHL1      H3'             3.1193003538       11.4862034320      -19.1690700000  MEMB      104             0.0000000000
     12096       104  CHL1      C4              4.3370853238       10.5617639517      -16.4558000000  MEMB      104             0.0000000000
     12097       104  CHL1      H4A             5.0079959506        9.7321512456      -16.7655500000  MEMB      104             0.0000000000
     12098       104  CHL1      H4B             5.0309012271       11.4294570951      -16.4624400000  MEMB      104             0.0000000000
     12099       104  CHL1      C5              3.8809338355       10.3129757087      -14.9928500000  MEMB      104             0.0000000000
     12100       104  CHL1      C6              4.2753675570       11.1391613674      -13.9927600000  MEMB      104             0.0000000000
     12101       104  CHL1      H6              5.0109141839       11.9278753870      -14.2093100000  MEMB      104             0.0000000000
     12102       104  CHL1      C7              3.8852571653       10.8683771758      -12.5934500000  MEMB      104             0.0000000000
     12103       104  CHL1      H7A             4.7968721535       10.8511377339      -11.9586400000  MEMB      104             0.0000000000
     12104       104  CHL1      H7B             3.3110147832       11.6975129343      -12.1275100000  MEMB      104             0.0000000000
     12105       104  CHL1      C8              3.1791854151        9.5534244057      -12.2602400000  MEMB      104             0.0000000000
     12106       104  CHL1      H8              4.0236920767        8.8380522698      -12.1634100000  MEMB      104             0.0000000000
     12107       104  CHL1      C14             2.4971103698        9.6355335595      -10.8903400000  MEMB      104             0.0000000000
     12108       104  CHL1      H14             1.6766955214       10.3770915797      -10.9967500000  MEMB      104             0.0000000000
     12109       104  CHL1      C15             3.2396058616       10.1937221979       -9.6774500000  MEMB      104             0.0000000000
     12110       104  CHL1      H15A            4.2342323634        9.6998134576       -9.6445700000  MEMB      104             0.0000000000
     12111       104  CHL1      H15B            3.2894512511       11.2940715801       -9.8225900000  MEMB      104             0.0000000000
     12112       104  CHL1      C16             2.4268639543        9.7485927746       -8.5232300000  MEMB      104             0.0000000000
     12113       104  CHL1      H16A            2.9830764821        9.2204859446       -7.7194600000  MEMB      104             0.0000000000
     12114       104  CHL1      H16B            1.8911796198       10.5588161572       -7.9838700000  MEMB      104             0.0000000000
     12115       104  CHL1      C17             1.3155534759        8.7861095127       -9.0626200000  MEMB      104             0.0000000000
     12116       104  CHL1      H17             0.4790371083        9.4750097729       -9.3075000000  MEMB      104             0.0000000000
     12117       104  CHL1      C13             1.8021667059        8.3370930453      -10.4681000000  MEMB      104             0.0000000000
     12118       104  CHL1      C18             2.8981404380        7.2148786969      -10.3089800000  MEMB      104             0.0000000000
     12119       104  CHL1      H18A            3.6342463007        7.5097825909       -9.5308400000  MEMB      104             0.0000000000
     12120       104  CHL1      H18B            2.3965438622        6.2431946205      -10.1126000000  MEMB      104             0.0000000000
     12121       104  CHL1      H18C            3.5517089768        7.1559971731      -11.2054800000  MEMB      104             0.0000000000
     12122       104  CHL1      C12             0.7991741614        7.8799525637      -11.5525200000  MEMB      104             0.0000000000
     12123       104  CHL1      H12A            0.2284102917        6.9534896268      -11.3284500000  MEMB      104             0.0000000000
     12124       104  CHL1      H12B            0.0299665353        8.6708061261      -11.6836300000  MEMB      104             0.0000000000
     12125       104  CHL1      C11             1.4542382754        7.8710333962      -12.9641200000  MEMB      104             0.0000000000
     12126       104  CHL1      H11A            2.1707325199        7.0219502229      -12.9626400000  MEMB      104             0.0000000000
     12127       104  CHL1      H11B            0.8406508637        7.5764840201      -13.8422300000  MEMB      104             0.0000000000
     12128       104  CHL1      C9              2.2241039254        9.1860268555      -13.3245100000  MEMB      104             0.0000000000
     12129       104  CHL1      H9              1.3938129017        9.9241892665      -13.3166500000  MEMB      104             0.0000000000
     12130       104  CHL1      C10             2.8430267659        9.1670234157      -14.8530700000  MEMB      104             0.0000000000
     12131       104  CHL1      C19             3.5238648555        7.7964913490      -15.0508100000  MEMB      104             0.0000000000
     12132       104  CHL1      H19A            2.7729834508        6.9781743804      -15.0799200000  MEMB      104             0.0000000000
     12133       104  CHL1      H19B            4.0593057666        7.8659324706      -16.0217900000  MEMB      104             0.0000000000
     12134       104  CHL1      H19C            4.1948500752        7.4811339944      -14.2233700000  MEMB      104             0.0000000000
     12135       104  CHL1      C1              1.6909250388        9.3626987870      -15.8284100000  MEMB      104             0.0000000000
     12136       104  CHL1      H1A             0.9622125074        8.5287441890      -15.7400600000  MEMB      104             0.0000000000
     12137       104  CHL1      H1B             1.1887304474       10.2988449429      -15.5032100000  MEMB      104             0.0000000000
     12138       104  CHL1      C2              2.1919356408        9.6747396356      -17.2573300000  MEMB      104             0.0000000000
     12139       104  CHL1      H2A             1.2679697642        9.9138006986      -17.8260700000  MEMB      104             0.0000000000
     12140       104  CHL1      H2B             2.6505742620        8.7374482941      -17.6387000000  MEMB      104             0.0000000000
     12141       104  CHL1      C20             0.8152146101        7.6951448772       -8.0485600000  MEMB      104             0.0000000000
     12142       104  CHL1      H20             1.6643060481        6.9865543655       -7.9424700000  MEMB      104             0.0000000000
     12143       104  CHL1      C21            -0.4491782433        6.9110894407       -8.5273800000  MEMB      104             0.0000000000
     12144       104  CHL1      H21A           -0.9779712279        6.4731141003       -7.6539500000  MEMB      104             0.0000000000
     12145       104  CHL1      H21B           -0.2508900162        6.0429254369       -9.1916700000  MEMB      104             0.0000000000
     12146       104  CHL1      H21C           -1.1138429584        7.6345003737       -9.0462400000  MEMB      104             0.0000000000
     12147       104  CHL1      C22             0.5336091556        8.2693866425       -6.6274600000  MEMB      104             0.0000000000
     12148       104  CHL1      H22A            0.4830499202        7.4888228423       -5.8384800000  MEMB      104             0.0000000000
     12149       104  CHL1      H22B            1.3801321161        8.9308606016       -6.3442900000  MEMB      104             0.0000000000
     12150       104  CHL1      C23            -0.7356913323        9.1096240260       -6.5771200000  MEMB      104             0.0000000000
     12151       104  CHL1      H23A           -0.7026581548        9.8601475084       -7.3956300000  MEMB      104             0.0000000000
     12152       104  CHL1      H23B           -1.5627553402        8.4699748617       -6.9528100000  MEMB      104             0.0000000000
     12153       104  CHL1      C24            -0.9930156569        9.6774621411       -5.2531700000  MEMB      104             0.0000000000
     12154       104  CHL1      H24A           -1.9974052263       10.1279231448       -5.4035700000  MEMB      104             0.0000000000
     12155       104  CHL1      H24B           -0.8892143974        8.8296951409       -4.5426500000  MEMB      104             0.0000000000
     12156       104  CHL1      C25            -0.0361561271       10.8490730135       -4.9227100000  MEMB      104             0.0000000000
     12157       104  CHL1      H25             0.9683471329       10.3815172189       -5.0044700000  MEMB      104             0.0000000000
     12158       104  CHL1      C26            -0.3295038720       12.0446813401       -5.8526300000  MEMB      104             0.0000000000
     12159       104  CHL1      H26A            0.0429008488       11.8863217164       -6.8873100000  MEMB      104             0.0000000000
     12160       104  CHL1      H26B           -1.4209768279       12.2305813902       -5.9446000000  MEMB      104             0.0000000000
     12161       104  CHL1      H26C            0.2731257932       12.9067915298       -5.4949700000  MEMB      104             0.0000000000
     12162       104  CHL1      C27            -0.4953496334       11.3200926613       -3.5371200000  MEMB      104             0.0000000000
     12163       104  CHL1      H27A           -0.6103288906       10.5022733742       -2.7939700000  MEMB      104             0.0000000000
     12164       104  CHL1      H27B            0.1178231291       12.1815761953       -3.1962700000  MEMB      104             0.0000000000
     12165       104  CHL1      H27C           -1.5209528373       11.7471414223       -3.5468500000  MEMB      104             0.0000000000
     12166       105  CHL1      C3              6.9561727579      -10.3896721710      -17.3401400000  MEMB      105             0.0000000000
     12167       105  CHL1      H3              8.0232151975      -10.0829665137      -17.3810100000  MEMB      105             0.0000000000
     12168       105  CHL1      O3              6.3792843821      -10.2411568290      -18.6598600000  MEMB      105             0.0000000000
     12169       105  CHL1      H3'             6.9539925569      -10.8310344839      -19.1531700000  MEMB      105             0.0000000000
     12170       105  CHL1      C4              6.7748337953      -11.7847397831      -16.8333300000  MEMB      105             0.0000000000
     12171       105  CHL1      H4A             5.7140584360      -12.1071329579      -16.7616400000  MEMB      105             0.0000000000
     12172       105  CHL1      H4B             7.4288105001      -12.4391858223      -17.4484100000  MEMB      105             0.0000000000
     12173       105  CHL1      C5              7.3501867163      -11.8262469905      -15.4468900000  MEMB      105             0.0000000000
     12174       105  CHL1      C6              8.4147238979      -12.5589192897      -15.1470400000  MEMB      105             0.0000000000
     12175       105  CHL1      H6              8.8194838972      -13.2034475012      -15.9412400000  MEMB      105             0.0000000000
     12176       105  CHL1      C7              9.1087355288      -12.5788778317      -13.7741900000  MEMB      105             0.0000000000
     12177       105  CHL1      H7A             9.5163661352      -13.5697437786      -13.4803300000  MEMB      105             0.0000000000
     12178       105  CHL1      H7B            10.0271417994      -11.9539132401      -13.7579500000  MEMB      105             0.0000000000
     12179       105  CHL1      C8              8.1698175996      -12.0715187641      -12.6472300000  MEMB      105             0.0000000000
     12180       105  CHL1      H8              7.3965580805      -12.8509516173      -12.4773200000  MEMB      105             0.0000000000
     12181       105  CHL1      C14             8.9632627773      -11.7684706270      -11.3839500000  MEMB      105             0.0000000000
     12182       105  CHL1      H14             9.6954592009      -10.9702750930      -11.6311300000  MEMB      105             0.0000000000
     12183       105  CHL1      C15             9.7896267111      -12.9435287710      -10.8639400000  MEMB      105             0.0000000000
     12184       105  CHL1      H15A            9.1538032789      -13.8449581803      -10.7317600000  MEMB      105             0.0000000000
     12185       105  CHL1      H15B           10.6582095008      -13.1886416330      -11.5118700000  MEMB      105             0.0000000000
     12186       105  CHL1      C16            10.2229300916      -12.4044099654       -9.4678300000  MEMB      105             0.0000000000
     12187       105  CHL1      H16A           10.2134541402      -13.1613232036       -8.6546200000  MEMB      105             0.0000000000
     12188       105  CHL1      H16B           11.2535196621      -11.9904922751       -9.4972300000  MEMB      105             0.0000000000
     12189       105  CHL1      C17             9.3553321576      -11.1807504980       -9.1964600000  MEMB      105             0.0000000000
     12190       105  CHL1      H17            10.0124585104      -10.3313146044       -9.4810000000  MEMB      105             0.0000000000
     12191       105  CHL1      C13             8.2001160257      -11.1625539458      -10.2156900000  MEMB      105             0.0000000000
     12192       105  CHL1      C18             7.0959742014      -12.0310397278       -9.6504000000  MEMB      105             0.0000000000
     12193       105  CHL1      H18A            7.4820333740      -13.0489470475       -9.4287000000  MEMB      105             0.0000000000
     12194       105  CHL1      H18B            6.5332007829      -11.6724432639       -8.7621300000  MEMB      105             0.0000000000
     12195       105  CHL1      H18C            6.3208538218      -12.2966242776      -10.4007200000  MEMB      105             0.0000000000
     12196       105  CHL1      C12             7.6197188919       -9.8144234662      -10.6604300000  MEMB      105             0.0000000000
     12197       105  CHL1      H12A            6.9355688588       -9.4360708229       -9.8710600000  MEMB      105             0.0000000000
     12198       105  CHL1      H12B            8.3525006998       -9.0246242543      -10.9316700000  MEMB      105             0.0000000000
     12199       105  CHL1      C11             6.7867014434       -9.9373293465      -11.9339300000  MEMB      105             0.0000000000
     12200       105  CHL1      H11A            5.7501017660      -10.2641345170      -11.7037600000  MEMB      105             0.0000000000
     12201       105  CHL1      H11B            6.7754762902       -8.8686155177      -12.2373100000  MEMB      105             0.0000000000
     12202       105  CHL1      C9              7.5299809982      -10.7362982377      -13.1031300000  MEMB      105             0.0000000000
     12203       105  CHL1      H9              8.4142407623      -10.1284677465      -13.3911400000  MEMB      105             0.0000000000
     12204       105  CHL1      C10             6.7481427328      -10.8241644088      -14.4270100000  MEMB      105             0.0000000000
     12205       105  CHL1      C19             5.3030506781      -11.0261049428      -13.9984800000  MEMB      105             0.0000000000
     12206       105  CHL1      H19A            4.8250688565      -10.1586226363      -13.4951500000  MEMB      105             0.0000000000
     12207       105  CHL1      H19B            4.7623326633      -11.3251296884      -14.9218000000  MEMB      105             0.0000000000
     12208       105  CHL1      H19C            5.3476063617      -11.8662086925      -13.2728300000  MEMB      105             0.0000000000
     12209       105  CHL1      C1              6.8920299013       -9.3962878708      -15.0858100000  MEMB      105             0.0000000000
     12210       105  CHL1      H1A             6.3932995778       -8.6756989929      -14.4029200000  MEMB      105             0.0000000000
     12211       105  CHL1      H1B             7.9479879124       -9.0581728718      -15.1562400000  MEMB      105             0.0000000000
     12212       105  CHL1      C2              6.2269571661       -9.3598907059      -16.4417000000  MEMB      105             0.0000000000
     12213       105  CHL1      H2A             6.2063148812       -8.3276415262      -16.8520000000  MEMB      105             0.0000000000
     12214       105  CHL1      H2B             5.1900393879       -9.7234041168      -16.2774000000  MEMB      105             0.0000000000
     12215       105  CHL1      C20             9.0189260505      -11.0651661671       -7.7063700000  MEMB      105             0.0000000000
     12216       105  CHL1      H20             8.3392102833      -11.8628833788       -7.3376300000  MEMB      105             0.0000000000
     12217       105  CHL1      C21             8.2902425433       -9.7635365001       -7.4351000000  MEMB      105             0.0000000000
     12218       105  CHL1      H21A            7.3247983153       -9.7621183921       -7.9848700000  MEMB      105             0.0000000000
     12219       105  CHL1      H21B            8.8474620708       -8.9064890450       -7.8701900000  MEMB      105             0.0000000000
     12220       105  CHL1      H21C            8.1421677278       -9.5049542772       -6.3648100000  MEMB      105             0.0000000000
     12221       105  CHL1      C22            10.3235645852      -11.1112945067       -6.8471800000  MEMB      105             0.0000000000
     12222       105  CHL1      H22A           11.0312242806      -11.9596982573       -6.9644400000  MEMB      105             0.0000000000
     12223       105  CHL1      H22B           10.8572220606      -10.1573254431       -7.0458500000  MEMB      105             0.0000000000
     12224       105  CHL1      C23             9.9884601421      -11.1490289511       -5.2892600000  MEMB      105             0.0000000000
     12225       105  CHL1      H23A            9.5109432759      -10.1907090653       -4.9927100000  MEMB      105             0.0000000000
     12226       105  CHL1      H23B            9.2538598261      -11.9824974649       -5.2857900000  MEMB      105             0.0000000000
     12227       105  CHL1      C24            11.1679051301      -11.5018523634       -4.4240400000  MEMB      105             0.0000000000
     12228       105  CHL1      H24A           11.8578643893      -12.2953079906       -4.7827900000  MEMB      105             0.0000000000
     12229       105  CHL1      H24B           11.8396759533      -10.6191448018       -4.3617500000  MEMB      105             0.0000000000
     12230       105  CHL1      C25            10.7697918967      -11.8508213710       -2.9486200000  MEMB      105             0.0000000000
     12231       105  CHL1      H25            10.4026246716      -12.8993798898       -2.9427900000  MEMB      105             0.0000000000
     12232       105  CHL1      C26            12.1141163548      -11.8802461455       -2.0868200000  MEMB      105             0.0000000000
     12233       105  CHL1      H26A           11.8035792598      -12.1268018494       -1.0489900000  MEMB      105             0.0000000000
     12234       105  CHL1      H26B           12.8205578226      -12.6923041409       -2.3621700000  MEMB      105             0.0000000000
     12235       105  CHL1      H26C           12.7102311669      -10.9592998694       -2.2624100000  MEMB      105             0.0000000000
     12236       105  CHL1      C27             9.9731922882      -10.8013944995       -2.2342700000  MEMB      105             0.0000000000
     12237       105  CHL1      H27A            8.8819065523      -10.7421548168       -2.4340100000  MEMB      105             0.0000000000
     12238       105  CHL1      H27B           10.1330345744      -10.9161617314       -1.1408300000  MEMB      105             0.0000000000
     12239       105  CHL1      H27C           10.3433443766       -9.8267472240       -2.6181700000  MEMB      105             0.0000000000
     12240       106  SLPC      N               0.2855653190      -11.3354895949      -18.3291983417  MEMB      106             0.0000000000
     12241       106  SLPC      C13             1.4648903971      -10.4486776868      -18.2865632676  MEMB      106             0.0000000000
     12242       106  SLPC      H13A            1.2917885489       -9.4884941960      -18.7496869937  MEMB      106             0.0000000000
     12243       106  SLPC      H13B            1.5792985169      -10.2876374760      -17.2247832785  MEMB      106             0.0000000000
     12244       106  SLPC      H13C            2.3230360606      -10.9156271965      -18.7469375664  MEMB      106             0.0000000000
     12245       106  SLPC      C14             0.2515171221      -11.8132721550      -19.7923660071  MEMB      106             0.0000000000
     12246       106  SLPC      H14A            0.0156119217      -11.1472784216      -20.6091898985  MEMB      106             0.0000000000
     12247       106  SLPC      H14B            1.1572201537      -12.3855099822      -19.9289157061  MEMB      106             0.0000000000
     12248       106  SLPC      H14C           -0.5715786605      -12.5079224985      -19.8722048439  MEMB      106             0.0000000000
     12249       106  SLPC      C15            -0.9548121519      -10.5533097240      -18.0451359677  MEMB      106             0.0000000000
     12250       106  SLPC      H15A           -1.0094170991       -9.6649985642      -18.6569541066  MEMB      106             0.0000000000
     12251       106  SLPC      H15B           -1.7393468931      -11.2314098213      -18.3469399437  MEMB      106             0.0000000000
     12252       106  SLPC      H15C           -0.9617073171      -10.3039457384      -16.9943410216  MEMB      106             0.0000000000
     12253       106  SLPC      C12             0.4408992462      -12.4427345935      -17.3954784289  MEMB      106             0.0000000000
     12254       106  SLPC      H12A            0.3922740978      -12.0410488591      -16.3941372512  MEMB      106             0.0000000000
     12255       106  SLPC      H12B            1.4546432538      -12.8150732273      -17.4048141467  MEMB      106             0.0000000000
     12256       106  SLPC      C11            -0.5301134993      -13.5929507390      -17.3999128361  MEMB      106             0.0000000000
     12257       106  SLPC      H11A           -0.1170125217      -14.5056192639      -16.9195953449  MEMB      106             0.0000000000
     12258       106  SLPC      H11B           -0.6863103536      -13.7625207597      -18.4867290385  MEMB      106             0.0000000000
     12259       106  SLPC      P              -2.2744465441      -13.6575717901      -15.4998944401  MEMB      106             0.0000000000
     12260       106  SLPC      O13            -1.3479964374      -13.1373678383      -14.4551549106  MEMB      106             0.0000000000
     12261       106  SLPC      O14            -3.7538472060      -13.4967193632      -15.2349127819  MEMB      106             0.0000000000
     12262       106  SLPC      O12            -1.8932231681      -13.2852492220      -16.9358812100  MEMB      106             0.0000000000
     12263       106  SLPC      O11            -1.9187022636      -15.1918255639      -15.6255018120  MEMB      106             0.0000000000
     12264       106  SLPC      C1             -2.8720766463      -16.1257846920      -16.1180003746  MEMB      106             0.0000000000
     12265       106  SLPC      HA             -3.7567709312      -16.0657279034      -15.4486496374  MEMB      106             0.0000000000
     12266       106  SLPC      HB             -3.1990065169      -15.8950225179      -17.1544301524  MEMB      106             0.0000000000
     12267       106  SLPC      C2             -2.1745465623      -17.5605993608      -16.1760467236  MEMB      106             0.0000000000
     12268       106  SLPC      HS             -2.9451770603      -18.2666349167      -16.5528271779  MEMB      106             0.0000000000
     12269       106  SLPC      O21            -1.7972254463      -17.9752912410      -14.8776566493  MEMB      106             0.0000000000
     12270       106  SLPC      C21            -2.6749712856      -18.1096638503      -13.9501290075  MEMB      106             0.0000000000
     12271       106  SLPC      O22            -3.8787668082      -18.2588826360      -14.0929398948  MEMB      106             0.0000000000
     12272       106  SLPC      C22            -2.0023586941      -18.0031564719      -12.5778434470  MEMB      106             0.0000000000
     12273       106  SLPC      H2R            -1.0936779806      -18.6358909021      -12.4869204661  MEMB      106             0.0000000000
     12274       106  SLPC      H2S            -1.7026319837      -16.9573458318      -12.3525321361  MEMB      106             0.0000000000
     12275       106  SLPC      C3             -0.9533392468      -17.6237458122      -17.0910888118  MEMB      106             0.0000000000
     12276       106  SLPC      HX             -1.2597872143      -17.1008361187      -18.0222044045  MEMB      106             0.0000000000
     12277       106  SLPC      HY             -0.5462269903      -18.6037267804      -17.4200526962  MEMB      106             0.0000000000
     12278       106  SLPC      O31             0.1064091844      -16.7815732196      -16.5862544820  MEMB      106             0.0000000000
     12279       106  SLPC      C31             0.8532129239      -17.2126662897      -15.5757169402  MEMB      106             0.0000000000
     12280       106  SLPC      O32             0.8969914619      -18.3226468648      -15.1537216265  MEMB      106             0.0000000000
     12281       106  SLPC      C32             1.6476419040      -16.1147034314      -15.0202307085  MEMB      106             0.0000000000
     12282       106  SLPC      H2X             1.0576265561      -15.1738582656      -15.0520605518  MEMB      106             0.0000000000
     12283       106  SLPC      H2Y             2.6794218721      -16.0339899031      -15.4242563191  MEMB      106             0.0000000000
     12284       106  SLPC      C23            -3.1195328572      -18.4661024512      -11.5964028039  MEMB      106             0.0000000000
     12285       106  SLPC      H3R            -3.1825747552      -19.5718118982      -11.6844547482  MEMB      106             0.0000000000
     12286       106  SLPC      H3S            -4.0743893292      -17.9389163315      -11.8076958946  MEMB      106             0.0000000000
     12287       106  SLPC      C24            -2.7658785428      -18.3256318107      -10.1151355955  MEMB      106             0.0000000000
     12288       106  SLPC      H4R            -3.4597716176      -18.9109219864       -9.4746126953  MEMB      106             0.0000000000
     12289       106  SLPC      H4S            -2.9965479107      -17.2722988866       -9.8475496504  MEMB      106             0.0000000000
     12290       106  SLPC      C25            -1.3048766626      -18.6308815596       -9.7377631247  MEMB      106             0.0000000000
     12291       106  SLPC      H5R            -0.6564963214      -17.8274137361      -10.1480845059  MEMB      106             0.0000000000
     12292       106  SLPC      H5S            -0.9545276256      -19.6088528425      -10.1316533918  MEMB      106             0.0000000000
     12293       106  SLPC      C26            -1.0675907413      -18.7044430796       -8.2139136974  MEMB      106             0.0000000000
     12294       106  SLPC      H6R            -1.5273665013      -19.6425453237       -7.8359041625  MEMB      106             0.0000000000
     12295       106  SLPC      H6S            -1.6666381029      -17.8421756823       -7.8506529925  MEMB      106             0.0000000000
     12296       106  SLPC      C27             0.3098134218      -18.5141997940       -7.6538615064  MEMB      106             0.0000000000
     12297       106  SLPC      H7R             1.1659845169      -18.7716475804       -8.3134166908  MEMB      106             0.0000000000
     12298       106  SLPC      H7S             0.3449422265      -19.1685575132       -6.7566976665  MEMB      106             0.0000000000
     12299       106  SLPC      C28             0.7062428387      -17.0668006168       -7.2341831740  MEMB      106             0.0000000000
     12300       106  SLPC      H8R             0.6005249913      -16.4000829862       -8.1165844954  MEMB      106             0.0000000000
     12301       106  SLPC      H8S             1.7512245953      -17.2531618208       -6.9061531163  MEMB      106             0.0000000000
     12302       106  SLPC      C29            -0.0078929317      -16.4744360860       -5.9985456555  MEMB      106             0.0000000000
     12303       106  SLPC      H9R            -0.8133207144      -15.8113351199       -6.3472337707  MEMB      106             0.0000000000
     12304       106  SLPC      C210            0.2843865526      -16.6422524941       -4.7429102163  MEMB      106             0.0000000000
     12305       106  SLPC      H10R           -0.2778173708      -16.1736692856       -3.9217177761  MEMB      106             0.0000000000
     12306       106  SLPC      C211            1.3731864082      -17.4718685752       -4.2041140429  MEMB      106             0.0000000000
     12307       106  SLPC      H11R            1.8252014074      -18.2168726696       -4.8932961574  MEMB      106             0.0000000000
     12308       106  SLPC      H11S            1.0305742213      -18.1759694928       -3.4159644118  MEMB      106             0.0000000000
     12309       106  SLPC      C212            2.4418722137      -16.7090940288       -3.5422933100  MEMB      106             0.0000000000
     12310       106  SLPC      H12R            3.2977040707      -16.5641198535       -4.2179670117  MEMB      106             0.0000000000
     12311       106  SLPC      C213            2.5611945339      -16.2691723029       -2.2532924632  MEMB      106             0.0000000000
     12312       106  SLPC      H13R            3.4787737420      -15.7252101953       -1.9846778172  MEMB      106             0.0000000000
     12313       106  SLPC      C214            1.5352278782      -16.5673330638       -1.2093024498  MEMB      106             0.0000000000
     12314       106  SLPC      H14R            2.1128545186      -16.6647966719       -0.2652854813  MEMB      106             0.0000000000
     12315       106  SLPC      H14S            1.0524315722      -17.5637845660       -1.3004791522  MEMB      106             0.0000000000
     12316       106  SLPC      C215            0.3919919888      -15.5912390513       -1.0278965152  MEMB      106             0.0000000000
     12317       106  SLPC      H15R           -0.2180992509      -15.9973548358       -0.1929227655  MEMB      106             0.0000000000
     12318       106  SLPC      H15S           -0.3021509978      -15.5166584231       -1.8921447568  MEMB      106             0.0000000000
     12319       106  SLPC      C216            0.8297094796      -14.0762652400       -0.8785401610  MEMB      106             0.0000000000
     12320       106  SLPC      H16R            1.3927519406      -13.7186597046       -1.7670348671  MEMB      106             0.0000000000
     12321       106  SLPC      H16S            1.5699871118      -14.0021574784       -0.0534224878  MEMB      106             0.0000000000
     12322       106  SLPC      C217           -0.2673904819      -13.1202914430       -0.5058150528  MEMB      106             0.0000000000
     12323       106  SLPC      H17R            0.1127779425      -12.1908372085       -0.0305170237  MEMB      106             0.0000000000
     12324       106  SLPC      H17S           -0.9089809094      -13.5948766534        0.2671343195  MEMB      106             0.0000000000
     12325       106  SLPC      C218           -1.1807416083      -12.6096192487       -1.6942758020  MEMB      106             0.0000000000
     12326       106  SLPC      H18R           -0.6388803273      -12.0685734244       -2.4992456618  MEMB      106             0.0000000000
     12327       106  SLPC      H18S           -1.9426296910      -11.9156737182       -1.2792010015  MEMB      106             0.0000000000
     12328       106  SLPC      H18T           -1.6344216338      -13.3832034692       -2.3500680760  MEMB      106             0.0000000000
     12329       106  SLPC      C33             1.8591760034      -16.4882579183      -13.5110196209  MEMB      106             0.0000000000
     12330       106  SLPC      H3X             2.6983075413      -17.2140419153      -13.5694770996  MEMB      106             0.0000000000
     12331       106  SLPC      H3Y             0.9207335072      -16.8578232492      -13.0451138874  MEMB      106             0.0000000000
     12332       106  SLPC      C34             2.4046105497      -15.2843369780      -12.7420665270  MEMB      106             0.0000000000
     12333       106  SLPC      H4X             3.2219064672      -14.8147221148      -13.3301229225  MEMB      106             0.0000000000
     12334       106  SLPC      H4Y             2.9306330673      -15.6356512845      -11.8287211858  MEMB      106             0.0000000000
     12335       106  SLPC      C35             1.3817663804      -14.2305552775      -12.2995551781  MEMB      106             0.0000000000
     12336       106  SLPC      H5X             0.8934920876      -13.8015700252      -13.2005994533  MEMB      106             0.0000000000
     12337       106  SLPC      H5Y             2.0003056740      -13.4401586902      -11.8231066171  MEMB      106             0.0000000000
     12338       106  SLPC      C36             0.3567750245      -14.8569336964      -11.3392299788  MEMB      106             0.0000000000
     12339       106  SLPC      H6X             0.9811314923      -15.4551631009      -10.6416470524  MEMB      106             0.0000000000
     12340       106  SLPC      H6Y            -0.3365750901      -15.6178064390      -11.7571524243  MEMB      106             0.0000000000
     12341       106  SLPC      C37            -0.5741412712      -13.8397744414      -10.6228844237  MEMB      106             0.0000000000
     12342       106  SLPC      H7X            -1.3870083499      -13.5860450607      -11.3364591199  MEMB      106             0.0000000000
     12343       106  SLPC      H7Y             0.0140953663      -12.9381490729      -10.3483475843  MEMB      106             0.0000000000
     12344       106  SLPC      C38            -1.1647621115      -14.3290296471       -9.2725536539  MEMB      106             0.0000000000
     12345       106  SLPC      H8X            -0.3153656289      -14.1696032942       -8.5743922204  MEMB      106             0.0000000000
     12346       106  SLPC      H8Y            -1.4972207567      -15.3877751370       -9.3259409724  MEMB      106             0.0000000000
     12347       106  SLPC      C39            -2.3534738297      -13.4398350307       -8.8257644644  MEMB      106             0.0000000000
     12348       106  SLPC      H9X            -3.1793137479      -13.4824677500       -9.5677154482  MEMB      106             0.0000000000
     12349       106  SLPC      H9Y            -2.0463570463      -12.3730099026       -8.8691730065  MEMB      106             0.0000000000
     12350       106  SLPC      C310           -2.8381556581      -13.7362733842       -7.3820515482  MEMB      106             0.0000000000
     12351       106  SLPC      H10X           -3.4993743841      -12.9011433339       -7.0663483012  MEMB      106             0.0000000000
     12352       106  SLPC      H10Y           -2.0056164161      -13.5302399615       -6.6758292672  MEMB      106             0.0000000000
     12353       106  SLPC      C311           -3.4542374520      -15.1576765532       -7.0611976449  MEMB      106             0.0000000000
     12354       106  SLPC      H11X           -2.6584175298      -15.8430291104       -7.4235284652  MEMB      106             0.0000000000
     12355       106  SLPC      H11Y           -4.2014213769      -15.4354771886       -7.8350608215  MEMB      106             0.0000000000
     12356       106  SLPC      C312           -3.9617008640      -15.4536663942       -5.6069086877  MEMB      106             0.0000000000
     12357       106  SLPC      H12X           -4.6139569789      -14.6212942881       -5.2662625330  MEMB      106             0.0000000000
     12358       106  SLPC      H12Y           -3.1078105125      -15.4685236073       -4.8962955496  MEMB      106             0.0000000000
     12359       106  SLPC      C313           -4.7354442457      -16.7717945506       -5.4857114321  MEMB      106             0.0000000000
     12360       106  SLPC      H13X           -5.3913620984      -16.8540860023       -6.3786398430  MEMB      106             0.0000000000
     12361       106  SLPC      H13Y           -5.4659621506      -16.5419419097       -4.6808312747  MEMB      106             0.0000000000
     12362       106  SLPC      C314           -3.8932935601      -17.9557428251       -5.0526608858  MEMB      106             0.0000000000
     12363       106  SLPC      H14X           -3.0659539863      -18.0018686587       -5.7927301440  MEMB      106             0.0000000000
     12364       106  SLPC      H14Y           -4.4365497114      -18.9247718118       -5.0659572962  MEMB      106             0.0000000000
     12365       106  SLPC      C315           -3.4523129713      -17.9288815607       -3.6028848006  MEMB      106             0.0000000000
     12366       106  SLPC      H15X           -4.2755029989      -17.6576827963       -2.9078083630  MEMB      106             0.0000000000
     12367       106  SLPC      H15Y           -2.7137638151      -17.1094059351       -3.4712571435  MEMB      106             0.0000000000
     12368       106  SLPC      C316           -2.8236575841      -19.2341949903       -3.0409350641  MEMB      106             0.0000000000
     12369       106  SLPC      H16X           -2.2306359601      -19.6464505933       -3.8851456378  MEMB      106             0.0000000000
     12370       106  SLPC      H16Y           -3.6036801485      -19.9228978290       -2.6516100195  MEMB      106             0.0000000000
     12371       106  SLPC      C317           -1.9160383730      -18.9691114129       -1.7472389765  MEMB      106             0.0000000000
     12372       106  SLPC      H17X           -1.0180859160      -18.3666763332       -2.0023357141  MEMB      106             0.0000000000
     12373       106  SLPC      H17Y           -1.5520955872      -19.9386545594       -1.3449290437  MEMB      106             0.0000000000
     12374       106  SLPC      C318           -2.6662894945      -18.2921190411       -0.5792959738  MEMB      106             0.0000000000
     12375       106  SLPC      H18X           -3.1031348498      -17.3314630200       -0.9266094234  MEMB      106             0.0000000000
     12376       106  SLPC      H18Y           -1.8954275158      -18.1322794353        0.2046330208  MEMB      106             0.0000000000
     12377       106  SLPC      H18Z           -3.5216444472      -18.8793349719       -0.1819718880  MEMB      106             0.0000000000
     12378       107  CHL1      C3            -13.3406658463       -1.7353400623      -17.3454100000  MEMB      107             0.0000000000
     12379       107  CHL1      H3            -14.2690054419       -1.1313846002      -17.4334100000  MEMB      107             0.0000000000
     12380       107  CHL1      O3            -13.0054585537       -2.0533041777      -18.6545900000  MEMB      107             0.0000000000
     12381       107  CHL1      H3'           -12.5910206416       -1.3122184812      -19.1025200000  MEMB      107             0.0000000000
     12382       107  CHL1      C4            -12.2261374353       -0.9126573317      -16.6679000000  MEMB      107             0.0000000000
     12383       107  CHL1      H4A           -11.2479772531       -1.4129066900      -16.8330500000  MEMB      107             0.0000000000
     12384       107  CHL1      H4B           -12.2186303386        0.0270372237      -17.2605600000  MEMB      107             0.0000000000
     12385       107  CHL1      C5            -12.5303704958       -0.6543028090      -15.2097600000  MEMB      107             0.0000000000
     12386       107  CHL1      C6            -12.5485219890        0.6186857913      -14.7974900000  MEMB      107             0.0000000000
     12387       107  CHL1      H6            -12.3507098542        1.4467699147      -15.4940100000  MEMB      107             0.0000000000
     12388       107  CHL1      C7            -12.7337882033        1.0357970134      -13.3518500000  MEMB      107             0.0000000000
     12389       107  CHL1      H7A           -11.9141918756        1.6863239463      -12.9785100000  MEMB      107             0.0000000000
     12390       107  CHL1      H7B           -13.6464564927        1.6657797104      -13.2850100000  MEMB      107             0.0000000000
     12391       107  CHL1      C8            -12.6700077727       -0.1686430780      -12.3744300000  MEMB      107             0.0000000000
     12392       107  CHL1      H8            -11.5950040511       -0.4348054946      -12.2859000000  MEMB      107             0.0000000000
     12393       107  CHL1      C14           -13.3202152039        0.1022147906      -11.0084300000  MEMB      107             0.0000000000
     12394       107  CHL1      H14           -14.4089396219        0.2616340449      -11.1619700000  MEMB      107             0.0000000000
     12395       107  CHL1      C15           -12.9294655807        1.3884518736      -10.3134500000  MEMB      107             0.0000000000
     12396       107  CHL1      H15A          -11.8870812633        1.6028417973      -10.6325100000  MEMB      107             0.0000000000
     12397       107  CHL1      H15B          -13.5444064096        2.2423843367      -10.6697800000  MEMB      107             0.0000000000
     12398       107  CHL1      C16           -13.1877865029        1.1602287327       -8.9088200000  MEMB      107             0.0000000000
     12399       107  CHL1      H16A          -12.2471628304        1.3338832509       -8.3436600000  MEMB      107             0.0000000000
     12400       107  CHL1      H16B          -13.9876276008        1.7984360424       -8.4760800000  MEMB      107             0.0000000000
     12401       107  CHL1      C17           -13.6834354043       -0.3079878303       -8.7738500000  MEMB      107             0.0000000000
     12402       107  CHL1      H17           -14.7699727535       -0.1798826755       -8.9671000000  MEMB      107             0.0000000000
     12403       107  CHL1      C13           -13.1646306852       -1.0692481282      -10.0143500000  MEMB      107             0.0000000000
     12404       107  CHL1      C18           -11.6706358340       -1.4476929412       -9.7630700000  MEMB      107             0.0000000000
     12405       107  CHL1      H18A          -11.0434834944       -1.5365283626      -10.6758200000  MEMB      107             0.0000000000
     12406       107  CHL1      H18B          -11.1217161468       -0.7495170461       -9.0955600000  MEMB      107             0.0000000000
     12407       107  CHL1      H18C          -11.5239698551       -2.4825057789       -9.3862800000  MEMB      107             0.0000000000
     12408       107  CHL1      C12           -14.1256856587       -2.1504496008      -10.6073200000  MEMB      107             0.0000000000
     12409       107  CHL1      H12A          -14.0432321336       -3.0819827151      -10.0075100000  MEMB      107             0.0000000000
     12410       107  CHL1      H12B          -15.1790852263       -1.8106955527      -10.5112000000  MEMB      107             0.0000000000
     12411       107  CHL1      C11           -13.6539512539       -2.5902298520      -11.9928800000  MEMB      107             0.0000000000
     12412       107  CHL1      H11A          -12.6640220528       -3.0729474479      -11.8467900000  MEMB      107             0.0000000000
     12413       107  CHL1      H11B          -14.3679859807       -3.3591628309      -12.3578500000  MEMB      107             0.0000000000
     12414       107  CHL1      C9            -13.4749574103       -1.3730413225      -13.0080800000  MEMB      107             0.0000000000
     12415       107  CHL1      H9            -14.4666970448       -0.9578793062      -13.2880800000  MEMB      107             0.0000000000
     12416       107  CHL1      C10           -12.8206157901       -1.8709618641      -14.3129800000  MEMB      107             0.0000000000
     12417       107  CHL1      C19           -11.5615898144       -2.6359761840      -14.0356300000  MEMB      107             0.0000000000
     12418       107  CHL1      H19A          -11.0178829586       -2.2062692805      -13.1672700000  MEMB      107             0.0000000000
     12419       107  CHL1      H19B          -11.6489772745       -3.7278229433      -13.8497100000  MEMB      107             0.0000000000
     12420       107  CHL1      H19C          -10.9203127725       -2.6950148459      -14.9409500000  MEMB      107             0.0000000000
     12421       107  CHL1      C1            -13.8238243660       -2.8269221954      -15.0291100000  MEMB      107             0.0000000000
     12422       107  CHL1      H1A           -13.8999063183       -3.8639592475      -14.6378400000  MEMB      107             0.0000000000
     12423       107  CHL1      H1B           -14.8183621802       -2.3583474700      -14.8689000000  MEMB      107             0.0000000000
     12424       107  CHL1      C2            -13.5845204455       -3.0301110795      -16.5520100000  MEMB      107             0.0000000000
     12425       107  CHL1      H2A           -14.5465906245       -3.4511735163      -16.9145800000  MEMB      107             0.0000000000
     12426       107  CHL1      H2B           -12.6534345762       -3.6183008674      -16.6984100000  MEMB      107             0.0000000000
     12427       107  CHL1      C20           -13.4945543649       -0.9473229590       -7.3762700000  MEMB      107             0.0000000000
     12428       107  CHL1      H20           -12.4073382031       -0.9418320509       -7.1477100000  MEMB      107             0.0000000000
     12429       107  CHL1      C21           -14.0606412545       -2.3549812688       -7.2791100000  MEMB      107             0.0000000000
     12430       107  CHL1      H21A          -13.6058042195       -2.8578771273       -6.3990300000  MEMB      107             0.0000000000
     12431       107  CHL1      H21B          -13.6757907066       -3.0959762929       -8.0119900000  MEMB      107             0.0000000000
     12432       107  CHL1      H21C          -15.1583875320       -2.3585152241       -7.4501500000  MEMB      107             0.0000000000
     12433       107  CHL1      C22           -14.0226632947       -0.0308002546       -6.2402500000  MEMB      107             0.0000000000
     12434       107  CHL1      H22A          -13.5280692205        0.9600831804       -6.3288300000  MEMB      107             0.0000000000
     12435       107  CHL1      H22B          -15.1033651560        0.2047931711       -6.3445900000  MEMB      107             0.0000000000
     12436       107  CHL1      C23           -13.8562317205       -0.6706188213       -4.7998500000  MEMB      107             0.0000000000
     12437       107  CHL1      H23A          -14.4157067349       -1.6216561764       -4.6700900000  MEMB      107             0.0000000000
     12438       107  CHL1      H23B          -12.7839215416       -0.9122689017       -4.9613400000  MEMB      107             0.0000000000
     12439       107  CHL1      C24           -13.9122081045        0.3652777037       -3.5861900000  MEMB      107             0.0000000000
     12440       107  CHL1      H24A          -13.2192341801        1.1618829991       -3.9319300000  MEMB      107             0.0000000000
     12441       107  CHL1      H24B          -14.9296878534        0.7839748175       -3.4320400000  MEMB      107             0.0000000000
     12442       107  CHL1      C25           -13.3875030121       -0.2317142327       -2.3139900000  MEMB      107             0.0000000000
     12443       107  CHL1      H25           -13.8357739106       -1.2482535267       -2.3157200000  MEMB      107             0.0000000000
     12444       107  CHL1      C26           -11.8636819758       -0.4307801171       -2.1879900000  MEMB      107             0.0000000000
     12445       107  CHL1      H26A          -11.3914130985        0.5741233779       -2.2261400000  MEMB      107             0.0000000000
     12446       107  CHL1      H26B          -11.6137734496       -0.9754126019       -1.2524400000  MEMB      107             0.0000000000
     12447       107  CHL1      H26C          -11.5645853250       -1.0844913023       -3.0350600000  MEMB      107             0.0000000000
     12448       107  CHL1      C27           -13.8617303497        0.5751519624       -1.1501600000  MEMB      107             0.0000000000
     12449       107  CHL1      H27A          -14.8278103944        1.1087215665       -1.2778200000  MEMB      107             0.0000000000
     12450       107  CHL1      H27B          -14.0419313319       -0.1238749931       -0.3056400000  MEMB      107             0.0000000000
     12451       107  CHL1      H27C          -13.0911104491        1.3254813367       -0.8717800000  MEMB      107             0.0000000000
     12452       108  SAPE      N             -12.2693083880        7.7546317354      -21.6529363620  MEMB      108             0.0000000000
     12453       108  SAPE      HN1           -11.5927253514        8.4951117975      -21.9277534817  MEMB      108             0.0000000000
     12454       108  SAPE      HN2           -13.1504486404        7.9380537853      -22.1740393594  MEMB      108             0.0000000000
     12455       108  SAPE      HN3           -12.3976704190        7.8110241308      -20.6224301211  MEMB      108             0.0000000000
     12456       108  SAPE      C12           -11.6531667031        6.4498534286      -21.9511962022  MEMB      108             0.0000000000
     12457       108  SAPE      H12A          -10.6756076202        6.5104855327      -21.4267698636  MEMB      108             0.0000000000
     12458       108  SAPE      H12B          -11.3687418382        6.5095200423      -23.0235131602  MEMB      108             0.0000000000
     12459       108  SAPE      C11           -12.4451141007        5.2282825990      -21.4065379074  MEMB      108             0.0000000000
     12460       108  SAPE      H11A          -12.0056511803        4.2623295456      -21.7353663076  MEMB      108             0.0000000000
     12461       108  SAPE      H11B          -13.4077006744        5.1954783536      -21.9603177062  MEMB      108             0.0000000000
     12462       108  SAPE      P             -11.8886827515        4.5110372652      -19.0029571081  MEMB      108             0.0000000000
     12463       108  SAPE      O13           -12.2351605663        3.1021641359      -19.3631161393  MEMB      108             0.0000000000
     12464       108  SAPE      O14           -10.4355333650        4.8814209671      -18.9746527778  MEMB      108             0.0000000000
     12465       108  SAPE      O12           -12.7404312976        5.3362474902      -20.0296993176  MEMB      108             0.0000000000
     12466       108  SAPE      O11           -12.6382307883        4.8539137454      -17.6189041855  MEMB      108             0.0000000000
     12467       108  SAPE      C1            -13.1076285976        6.1722472404      -17.5369674798  MEMB      108             0.0000000000
     12468       108  SAPE      HA            -12.3811558928        6.9681252395      -17.8074052166  MEMB      108             0.0000000000
     12469       108  SAPE      HB            -13.9441802682        6.2845554636      -18.2593864811  MEMB      108             0.0000000000
     12470       108  SAPE      C2            -13.7733016516        6.5034431341      -16.1586410218  MEMB      108             0.0000000000
     12471       108  SAPE      HS            -14.2399126059        7.4866306782      -16.3821081305  MEMB      108             0.0000000000
     12472       108  SAPE      O21           -12.7973488289        6.4443357649      -15.0889955250  MEMB      108             0.0000000000
     12473       108  SAPE      C21           -12.9962976953        7.2469452124      -14.0510372569  MEMB      108             0.0000000000
     12474       108  SAPE      O22           -14.0078214373        7.9357175488      -13.9367044064  MEMB      108             0.0000000000
     12475       108  SAPE      C22           -11.8727313986        7.0296690969      -13.0093262395  MEMB      108             0.0000000000
     12476       108  SAPE      H2R           -10.9141872874        7.1437316035      -13.5593294977  MEMB      108             0.0000000000
     12477       108  SAPE      H2S           -11.8861028512        7.8670139457      -12.2792606249  MEMB      108             0.0000000000
     12478       108  SAPE      C3            -14.9133181561        5.5153633094      -15.8410195642  MEMB      108             0.0000000000
     12479       108  SAPE      HX            -15.6853987885        5.4537641668      -16.6375229887  MEMB      108             0.0000000000
     12480       108  SAPE      HY            -15.4386361153        5.8364629965      -14.9162184785  MEMB      108             0.0000000000
     12481       108  SAPE      O31           -14.3495815322        4.2338905364      -15.5917637019  MEMB      108             0.0000000000
     12482       108  SAPE      C31           -15.1226395235        3.1784218530      -15.7195582128  MEMB      108             0.0000000000
     12483       108  SAPE      O32           -16.2453846394        3.0872155900      -16.1053627546  MEMB      108             0.0000000000
     12484       108  SAPE      C32           -14.4148712496        2.0096791866      -15.0699715660  MEMB      108             0.0000000000
     12485       108  SAPE      H2X           -13.3179354777        2.0969228030      -14.9168648443  MEMB      108             0.0000000000
     12486       108  SAPE      H2Y           -14.5062465851        1.1910237820      -15.8154748952  MEMB      108             0.0000000000
     12487       108  SAPE      C23           -11.9022267303        5.7354477279      -12.2043920870  MEMB      108             0.0000000000
     12488       108  SAPE      H3R           -11.9181398008        4.8035219771      -12.8090261010  MEMB      108             0.0000000000
     12489       108  SAPE      H3S           -12.7323757522        5.6006196858      -11.4784475390  MEMB      108             0.0000000000
     12490       108  SAPE      C24           -10.5680918495        5.5956436757      -11.3961237774  MEMB      108             0.0000000000
     12491       108  SAPE      H4R           -10.7040362911        4.8304093565      -10.6022368846  MEMB      108             0.0000000000
     12492       108  SAPE      H4S           -10.5111590270        6.5831357329      -10.8902195450  MEMB      108             0.0000000000
     12493       108  SAPE      C25            -9.3372288632        5.2305042500      -12.1464945386  MEMB      108             0.0000000000
     12494       108  SAPE      H5R            -8.9628874080        6.0168905799      -12.8184063845  MEMB      108             0.0000000000
     12495       108  SAPE      C26            -8.6021937014        4.0497668996      -12.1073075197  MEMB      108             0.0000000000
     12496       108  SAPE      H6R            -7.6586710392        3.9638039153      -12.6662130792  MEMB      108             0.0000000000
     12497       108  SAPE      C27            -8.9158688760        2.8467213844      -11.2626872544  MEMB      108             0.0000000000
     12498       108  SAPE      H7R            -9.2801573048        3.2376230710      -10.2886181982  MEMB      108             0.0000000000
     12499       108  SAPE      H7S            -8.0130417517        2.2514954433      -11.0078724286  MEMB      108             0.0000000000
     12500       108  SAPE      C28            -9.9161041796        2.0157472186      -11.9071728199  MEMB      108             0.0000000000
     12501       108  SAPE      H8R            -9.5786946585        1.6628086434      -12.8928653717  MEMB      108             0.0000000000
     12502       108  SAPE      C29           -11.1484226752        1.6223070010      -11.4193184768  MEMB      108             0.0000000000
     12503       108  SAPE      H9R           -11.7467175967        0.9479535754      -12.0496287787  MEMB      108             0.0000000000
     12504       108  SAPE      C210          -11.8013053916        2.0380556365      -10.1042779570  MEMB      108             0.0000000000
     12505       108  SAPE      H10R          -12.8999547134        2.0638534753      -10.2674492199  MEMB      108             0.0000000000
     12506       108  SAPE      H10S          -11.4702123046        3.0874982736       -9.9514104710  MEMB      108             0.0000000000
     12507       108  SAPE      C211          -11.6242681737        1.1438585182       -8.8820752111  MEMB      108             0.0000000000
     12508       108  SAPE      H11R          -11.8516471752        0.0803316370       -9.0470274389  MEMB      108             0.0000000000
     12509       108  SAPE      C212          -11.1609222343        1.4404560911       -7.6629399390  MEMB      108             0.0000000000
     12510       108  SAPE      H12R          -11.2662974211        0.6511544093       -6.9040599821  MEMB      108             0.0000000000
     12511       108  SAPE      C213          -10.7190503159        2.7841394627       -7.0287460298  MEMB      108             0.0000000000
     12512       108  SAPE      H13R           -9.6755157633        3.0470546139       -7.3048472268  MEMB      108             0.0000000000
     12513       108  SAPE      H13S          -10.6617345550        2.6280763078       -5.9302561832  MEMB      108             0.0000000000
     12514       108  SAPE      C214          -11.6260592440        3.9664056364       -7.2652975803  MEMB      108             0.0000000000
     12515       108  SAPE      H14R          -12.5587174275        3.8994324171       -7.8446623874  MEMB      108             0.0000000000
     12516       108  SAPE      C215          -11.5008929440        5.1586814637       -6.5876300174  MEMB      108             0.0000000000
     12517       108  SAPE      H15R          -12.2406314965        5.9441044062       -6.8018680202  MEMB      108             0.0000000000
     12518       108  SAPE      C216          -10.4430782376        5.4925716810       -5.5072673115  MEMB      108             0.0000000000
     12519       108  SAPE      H16R          -10.0080398244        6.5065253441       -5.6375006902  MEMB      108             0.0000000000
     12520       108  SAPE      H16S           -9.6012866330        4.7759598393       -5.6176115600  MEMB      108             0.0000000000
     12521       108  SAPE      C217          -11.0608464072        5.2695053272       -4.1365081111  MEMB      108             0.0000000000
     12522       108  SAPE      H17R          -11.2451758125        4.1739257311       -4.1294992376  MEMB      108             0.0000000000
     12523       108  SAPE      H17S          -11.9515911304        5.9204729403       -4.0056046445  MEMB      108             0.0000000000
     12524       108  SAPE      C218          -10.0459883762        5.4138773968       -3.0777359320  MEMB      108             0.0000000000
     12525       108  SAPE      H18R           -9.6956853225        6.4675342810       -3.1153679259  MEMB      108             0.0000000000
     12526       108  SAPE      H18S           -9.2014917433        4.7279915748       -3.3029199475  MEMB      108             0.0000000000
     12527       108  SAPE      C219          -10.3700169530        4.9643456851       -1.6173907410  MEMB      108             0.0000000000
     12528       108  SAPE      H19R          -11.1960001673        5.6024609058       -1.2367571136  MEMB      108             0.0000000000
     12529       108  SAPE      H19S           -9.5270604364        5.2017271876       -0.9337273247  MEMB      108             0.0000000000
     12530       108  SAPE      C220          -10.6962153259        3.5053152871       -1.5314711963  MEMB      108             0.0000000000
     12531       108  SAPE      H20R           -9.9645794596        2.8068906431       -1.9910735884  MEMB      108             0.0000000000
     12532       108  SAPE      H20S          -11.6055020521        3.2321041346       -2.1084233840  MEMB      108             0.0000000000
     12533       108  SAPE      H20T          -10.8499291014        3.1287668103       -0.4975938508  MEMB      108             0.0000000000
     12534       108  SAPE      C33           -15.0101588351        1.4647797396      -13.7444487502  MEMB      108             0.0000000000
     12535       108  SAPE      H3X           -14.3925911273        0.6255912100      -13.3588405343  MEMB      108             0.0000000000
     12536       108  SAPE      H3Y           -15.9753778436        0.9682509725      -13.9813713861  MEMB      108             0.0000000000
     12537       108  SAPE      C34           -15.1938784266        2.5520432536      -12.6989846702  MEMB      108             0.0000000000
     12538       108  SAPE      H4X           -15.7396876470        3.4697372836      -13.0059879604  MEMB      108             0.0000000000
     12539       108  SAPE      H4Y           -14.1446758064        2.8068905776      -12.4371684979  MEMB      108             0.0000000000
     12540       108  SAPE      C35           -15.9082557481        1.9769636349      -11.4758092537  MEMB      108             0.0000000000
     12541       108  SAPE      H5X           -15.3919710439        1.0439486758      -11.1639538785  MEMB      108             0.0000000000
     12542       108  SAPE      H5Y           -16.8791345842        1.6042610991      -11.8667155423  MEMB      108             0.0000000000
     12543       108  SAPE      C36           -16.1323083191        2.8950869418      -10.3282533525  MEMB      108             0.0000000000
     12544       108  SAPE      H6X           -16.7391688952        3.7452707552      -10.7067089635  MEMB      108             0.0000000000
     12545       108  SAPE      H6Y           -15.1635843259        3.3580974891      -10.0427428870  MEMB      108             0.0000000000
     12546       108  SAPE      C37           -16.8657167556        2.2869232403       -9.0488871642  MEMB      108             0.0000000000
     12547       108  SAPE      H7X           -16.3029760239        1.3964951003       -8.6956419793  MEMB      108             0.0000000000
     12548       108  SAPE      H7Y           -17.8817461281        1.9453549782       -9.3410112150  MEMB      108             0.0000000000
     12549       108  SAPE      C38           -16.8154540999        3.3142706465       -7.9191389769  MEMB      108             0.0000000000
     12550       108  SAPE      H8X           -17.5025249317        3.0402122948       -7.0901959907  MEMB      108             0.0000000000
     12551       108  SAPE      H8Y           -17.1443419083        4.3143031370       -8.2742285849  MEMB      108             0.0000000000
     12552       108  SAPE      C39           -15.3922937813        3.3116347231       -7.2676441752  MEMB      108             0.0000000000
     12553       108  SAPE      H9X           -14.6508808533        3.5582494797       -8.0574594884  MEMB      108             0.0000000000
     12554       108  SAPE      H9Y           -15.1406805738        2.2776218309       -6.9485373268  MEMB      108             0.0000000000
     12555       108  SAPE      C310          -15.1880021586        4.1416388318       -6.0244424231  MEMB      108             0.0000000000
     12556       108  SAPE      H10X          -14.1998469855        3.9000594637       -5.5777772724  MEMB      108             0.0000000000
     12557       108  SAPE      H10Y          -15.9588184508        3.9372514710       -5.2508865279  MEMB      108             0.0000000000
     12558       108  SAPE      C311          -15.4194712024        5.6396736595       -6.4221241896  MEMB      108             0.0000000000
     12559       108  SAPE      H11X          -16.5134060539        5.8247887960       -6.3641588461  MEMB      108             0.0000000000
     12560       108  SAPE      H11Y          -14.9981024861        5.8539164448       -7.4275441011  MEMB      108             0.0000000000
     12561       108  SAPE      C312          -14.8812066699        6.7030119566       -5.5489241888  MEMB      108             0.0000000000
     12562       108  SAPE      H12X          -15.3679509139        7.6885103746       -5.7107690783  MEMB      108             0.0000000000
     12563       108  SAPE      H12Y          -13.7916560182        6.8151638547       -5.7349949736  MEMB      108             0.0000000000
     12564       108  SAPE      C313          -15.0201833847        6.4402257151       -4.0782093307  MEMB      108             0.0000000000
     12565       108  SAPE      H13X          -14.5225303232        5.4692361505       -3.8688253018  MEMB      108             0.0000000000
     12566       108  SAPE      H13Y          -16.0969298418        6.2490842280       -3.8822425481  MEMB      108             0.0000000000
     12567       108  SAPE      C314          -14.4521631403        7.5767675437       -3.1699227874  MEMB      108             0.0000000000
     12568       108  SAPE      H14X          -15.0204277262        8.4828865905       -3.4704969776  MEMB      108             0.0000000000
     12569       108  SAPE      H14Y          -13.4179910557        7.7795728335       -3.5216030879  MEMB      108             0.0000000000
     12570       108  SAPE      C315          -14.5510280972        7.4500643815       -1.5951632158  MEMB      108             0.0000000000
     12571       108  SAPE      H15X          -15.4656858943        7.9186669090       -1.1731045165  MEMB      108             0.0000000000
     12572       108  SAPE      H15Y          -13.8040694069        8.1085691398       -1.1024722626  MEMB      108             0.0000000000
     12573       108  SAPE      C316          -14.2626898848        6.0337713082       -1.1328591653  MEMB      108             0.0000000000
     12574       108  SAPE      H16X          -13.2665522056        5.7488363138       -1.5339109099  MEMB      108             0.0000000000
     12575       108  SAPE      H16Y          -15.0004538693        5.3475125726       -1.6009121656  MEMB      108             0.0000000000
     12576       108  SAPE      C317          -14.3439272729        5.8609570998        0.3711578104  MEMB      108             0.0000000000
     12577       108  SAPE      H17X          -13.5162669308        6.5392299983        0.6698971741  MEMB      108             0.0000000000
     12578       108  SAPE      H17Y          -14.0412838400        4.8266040228        0.6410494038  MEMB      108             0.0000000000
     12579       108  SAPE      C318          -15.7482425372        6.1902823146        0.9948683905  MEMB      108             0.0000000000
     12580       108  SAPE      H18X          -15.9873731974        7.2752347953        0.9909571632  MEMB      108             0.0000000000
     12581       108  SAPE      H18Y          -15.7009242975        5.8623328224        2.0553069634  MEMB      108             0.0000000000
     12582       108  SAPE      H18Z          -16.4769203189        5.5434889386        0.4610060614  MEMB      108             0.0000000000
     12583       109  SOPE      N              12.9784638570        0.4064244638      -19.6181664803  MEMB      109             0.0000000000
     12584       109  SOPE      HN1            11.9722824051        0.6166359630      -19.4600206844  MEMB      109             0.0000000000
     12585       109  SOPE      HN2            13.0455475921        0.1839459387      -20.6318740708  MEMB      109             0.0000000000
     12586       109  SOPE      HN3            13.2082860328       -0.5077632388      -19.1788003819  MEMB      109             0.0000000000
     12587       109  SOPE      C12            14.0255029210        1.4110220785      -19.1304444867  MEMB      109             0.0000000000
     12588       109  SOPE      H12A           13.9114965694        1.4379621942      -18.0256379109  MEMB      109             0.0000000000
     12589       109  SOPE      H12B           13.7857478362        2.4141755338      -19.5433871580  MEMB      109             0.0000000000
     12590       109  SOPE      C11            15.5092330802        1.1124977524      -19.5442192601  MEMB      109             0.0000000000
     12591       109  SOPE      H11A           15.6894788568        0.0838789589      -19.1650416106  MEMB      109             0.0000000000
     12592       109  SOPE      H11B           16.2212958564        1.8165627705      -19.0629916148  MEMB      109             0.0000000000
     12593       109  SOPE      P              15.8990260139        0.0632592986      -21.9704618525  MEMB      109             0.0000000000
     12594       109  SOPE      O13            16.2580587172        0.6021595341      -23.3169809266  MEMB      109             0.0000000000
     12595       109  SOPE      O14            14.6847895701       -0.7567191260      -21.9375575619  MEMB      109             0.0000000000
     12596       109  SOPE      O12            15.7596785953        1.2164915079      -20.9498443258  MEMB      109             0.0000000000
     12597       109  SOPE      O11            17.0845944451       -0.8484273860      -21.5323250705  MEMB      109             0.0000000000
     12598       109  SOPE      C1             18.1991235286       -0.5269003864      -20.7581753481  MEMB      109             0.0000000000
     12599       109  SOPE      HA             18.0684110335        0.4752053974      -20.2966351599  MEMB      109             0.0000000000
     12600       109  SOPE      HB             19.1711572684       -0.5145121261      -21.2960580346  MEMB      109             0.0000000000
     12601       109  SOPE      C2             18.2968473793       -1.6997123609      -19.6976864323  MEMB      109             0.0000000000
     12602       109  SOPE      HS             18.2058762742       -2.6540621468      -20.2591681557  MEMB      109             0.0000000000
     12603       109  SOPE      O21            17.2208172288       -1.6011128057      -18.7422081899  MEMB      109             0.0000000000
     12604       109  SOPE      C21            16.8731140181       -2.6559782723      -18.1190670994  MEMB      109             0.0000000000
     12605       109  SOPE      O22            17.3172157130       -3.7995659774      -18.3018107804  MEMB      109             0.0000000000
     12606       109  SOPE      C22            15.6731858372       -2.3373733371      -17.1961487353  MEMB      109             0.0000000000
     12607       109  SOPE      H2R            15.3661941127       -3.2218840783      -16.5980537685  MEMB      109             0.0000000000
     12608       109  SOPE      H2S            14.8334704442       -2.0563392571      -17.8671323079  MEMB      109             0.0000000000
     12609       109  SOPE      C3             19.6028517874       -1.7544216501      -18.9325379373  MEMB      109             0.0000000000
     12610       109  SOPE      HX             20.3059627788       -2.2287626748      -19.6501427497  MEMB      109             0.0000000000
     12611       109  SOPE      HY             19.6240503220       -2.4768325540      -18.0887404327  MEMB      109             0.0000000000
     12612       109  SOPE      O31            20.1051667390       -0.4711786695      -18.5502545032  MEMB      109             0.0000000000
     12613       109  SOPE      C31            20.1850342945       -0.2490630978      -17.1944940463  MEMB      109             0.0000000000
     12614       109  SOPE      O32            19.9938678102       -1.1028471009      -16.3265134493  MEMB      109             0.0000000000
     12615       109  SOPE      C32            20.6729288620        1.2616533124      -17.0179931882  MEMB      109             0.0000000000
     12616       109  SOPE      H2X            21.1114232852        1.4786012485      -18.0154785905  MEMB      109             0.0000000000
     12617       109  SOPE      H2Y            21.4197994901        1.3769901892      -16.2036207847  MEMB      109             0.0000000000
     12618       109  SOPE      C23            15.8400243668       -1.1863278428      -16.1190331419  MEMB      109             0.0000000000
     12619       109  SOPE      H3R            15.8702648384       -0.1923441271      -16.6144145705  MEMB      109             0.0000000000
     12620       109  SOPE      H3S            16.8685437338       -1.4282668778      -15.7756176418  MEMB      109             0.0000000000
     12621       109  SOPE      C24            14.8130554268       -1.2585860590      -14.9332789282  MEMB      109             0.0000000000
     12622       109  SOPE      H4R            13.7732226024       -1.2539968405      -15.3244918749  MEMB      109             0.0000000000
     12623       109  SOPE      H4S            14.9834030714       -2.2857678849      -14.5457224253  MEMB      109             0.0000000000
     12624       109  SOPE      C25            15.0586702074       -0.2596788439      -13.8119943086  MEMB      109             0.0000000000
     12625       109  SOPE      H5R            15.9984334008       -0.4980159179      -13.2694433262  MEMB      109             0.0000000000
     12626       109  SOPE      H5S            15.0407310511        0.7157597070      -14.3435193460  MEMB      109             0.0000000000
     12627       109  SOPE      C26            13.9333954433       -0.3758306323      -12.7307504833  MEMB      109             0.0000000000
     12628       109  SOPE      H6R            12.9373564322       -0.1177387555      -13.1498154867  MEMB      109             0.0000000000
     12629       109  SOPE      H6S            13.9956138585       -1.4042816892      -12.3151325590  MEMB      109             0.0000000000
     12630       109  SOPE      C27            14.1990129749        0.6093279549      -11.5849199569  MEMB      109             0.0000000000
     12631       109  SOPE      H7R            15.1731863057        0.3649621420      -11.1099543471  MEMB      109             0.0000000000
     12632       109  SOPE      H7S            14.2971090792        1.5606272860      -12.1503647439  MEMB      109             0.0000000000
     12633       109  SOPE      C28            13.1640793517        0.8251408884      -10.4666740116  MEMB      109             0.0000000000
     12634       109  SOPE      H8R            12.1489960477        1.0214125334      -10.8733735114  MEMB      109             0.0000000000
     12635       109  SOPE      H8S            13.0732518749       -0.1825649209      -10.0077615497  MEMB      109             0.0000000000
     12636       109  SOPE      C29            13.7456170501        1.8690884983       -9.5892168968  MEMB      109             0.0000000000
     12637       109  SOPE      H91            14.8432407956        1.9020435544       -9.5249053698  MEMB      109             0.0000000000
     12638       109  SOPE      C210           13.0486715014        2.8246133182       -8.8796448514  MEMB      109             0.0000000000
     12639       109  SOPE      H101           13.6546075221        3.4948022575       -8.2521990022  MEMB      109             0.0000000000
     12640       109  SOPE      C211           11.6290968416        3.1064836577       -8.7206337873  MEMB      109             0.0000000000
     12641       109  SOPE      H11R           11.0319678853        2.5790370981       -9.4949452983  MEMB      109             0.0000000000
     12642       109  SOPE      H11S           11.5670140974        4.2154836983       -8.7448414803  MEMB      109             0.0000000000
     12643       109  SOPE      C212           10.9896540705        2.7235048946       -7.3805870506  MEMB      109             0.0000000000
     12644       109  SOPE      H12R           10.8319402145        1.6237672679       -7.3756224233  MEMB      109             0.0000000000
     12645       109  SOPE      H12S            9.9794003458        3.1854958396       -7.3640627844  MEMB      109             0.0000000000
     12646       109  SOPE      C213           11.7780612915        3.2271538070       -6.1752851177  MEMB      109             0.0000000000
     12647       109  SOPE      H13R           11.4327132586        4.2587739089       -5.9498623499  MEMB      109             0.0000000000
     12648       109  SOPE      H13S           12.8719479067        3.0845916392       -6.3072288386  MEMB      109             0.0000000000
     12649       109  SOPE      C214           11.3626738116        2.4742427535       -4.8851695262  MEMB      109             0.0000000000
     12650       109  SOPE      H14R           10.2708034973        2.2701618482       -4.9073443756  MEMB      109             0.0000000000
     12651       109  SOPE      H14S           11.6307376158        3.1527072337       -4.0472278139  MEMB      109             0.0000000000
     12652       109  SOPE      C215           11.9277386823        1.0304990108       -4.6333420165  MEMB      109             0.0000000000
     12653       109  SOPE      H15R           13.0309016851        1.0854952087       -4.7530412305  MEMB      109             0.0000000000
     12654       109  SOPE      H15S           11.4575408379        0.3101131443       -5.3363923762  MEMB      109             0.0000000000
     12655       109  SOPE      C216           11.5986550511        0.5674533592       -3.1828965691  MEMB      109             0.0000000000
     12656       109  SOPE      H16R           10.5163139856        0.8150623954       -3.1435398557  MEMB      109             0.0000000000
     12657       109  SOPE      H16S           12.0578876725        1.2464216640       -2.4329446705  MEMB      109             0.0000000000
     12658       109  SOPE      C217           12.0307441806       -0.8459237561       -2.8955074336  MEMB      109             0.0000000000
     12659       109  SOPE      H17R           13.1410300539       -0.8578950705       -2.8575237186  MEMB      109             0.0000000000
     12660       109  SOPE      H17S           11.6895627072       -1.5673627911       -3.6684504625  MEMB      109             0.0000000000
     12661       109  SOPE      C218           11.5753056986       -1.3834561640       -1.5377636845  MEMB      109             0.0000000000
     12662       109  SOPE      H18R           12.1847207567       -2.2991410916       -1.3813827175  MEMB      109             0.0000000000
     12663       109  SOPE      H18S           10.5118053533       -1.7047173438       -1.5288576034  MEMB      109             0.0000000000
     12664       109  SOPE      H18T           11.7812938880       -0.6985476298       -0.6875916543  MEMB      109             0.0000000000
     12665       109  SOPE      C33            19.5575207737        2.2076228492      -16.5698430417  MEMB      109             0.0000000000
     12666       109  SOPE      H3X            18.6746748410        2.3810505656      -17.2216303236  MEMB      109             0.0000000000
     12667       109  SOPE      H3Y            19.9206376269        3.2574111564      -16.5495601581  MEMB      109             0.0000000000
     12668       109  SOPE      C34            18.9814809588        1.8522651389      -15.1159328487  MEMB      109             0.0000000000
     12669       109  SOPE      H4X            19.8337856009        2.0029384830      -14.4193733752  MEMB      109             0.0000000000
     12670       109  SOPE      H4Y            18.6053144056        0.8071174327      -15.0938885327  MEMB      109             0.0000000000
     12671       109  SOPE      C35            17.8158497251        2.7783954862      -14.6744187203  MEMB      109             0.0000000000
     12672       109  SOPE      H5X            16.9354040336        2.4279835711      -15.2543736424  MEMB      109             0.0000000000
     12673       109  SOPE      H5Y            18.0246867642        3.8323110329      -14.9572090104  MEMB      109             0.0000000000
     12674       109  SOPE      C36            17.3790027362        2.7557541088      -13.1783321758  MEMB      109             0.0000000000
     12675       109  SOPE      H6X            17.2488542032        1.6906648745      -12.8902910684  MEMB      109             0.0000000000
     12676       109  SOPE      H6Y            16.3851086726        3.2500671699      -13.1319618473  MEMB      109             0.0000000000
     12677       109  SOPE      C37            18.3441601345        3.5050005928      -12.2483123761  MEMB      109             0.0000000000
     12678       109  SOPE      H7X            18.6309777541        4.4822099607      -12.6922928544  MEMB      109             0.0000000000
     12679       109  SOPE      H7Y            19.3192872273        2.9840198422      -12.1386425224  MEMB      109             0.0000000000
     12680       109  SOPE      C38            17.8557214650        3.6459148635      -10.8235799517  MEMB      109             0.0000000000
     12681       109  SOPE      H8X            17.6404165201        2.6006679661      -10.5146734019  MEMB      109             0.0000000000
     12682       109  SOPE      H8Y            16.8750249506        4.1653136752      -10.8763075320  MEMB      109             0.0000000000
     12683       109  SOPE      C39            18.8921689119        4.2883424027       -9.8562175703  MEMB      109             0.0000000000
     12684       109  SOPE      H9X            18.8695891888        5.3871138047      -10.0190432502  MEMB      109             0.0000000000
     12685       109  SOPE      H9Y            19.8649430378        3.9652528411      -10.2847555548  MEMB      109             0.0000000000
     12686       109  SOPE      C310           18.7855957787        3.8658897410       -8.3698409131  MEMB      109             0.0000000000
     12687       109  SOPE      H10X           19.5507434429        4.4254857694       -7.7904254287  MEMB      109             0.0000000000
     12688       109  SOPE      H10Y           19.1689265800        2.8232081796       -8.3559182977  MEMB      109             0.0000000000
     12689       109  SOPE      C311           17.3712410146        4.0176363697       -7.7593394954  MEMB      109             0.0000000000
     12690       109  SOPE      H11X           16.7320917210        3.3517344796       -8.3777110999  MEMB      109             0.0000000000
     12691       109  SOPE      H11Y           16.9406710066        5.0361473547       -7.8668846853  MEMB      109             0.0000000000
     12692       109  SOPE      C312           17.3099009936        3.5990873534       -6.2731856142  MEMB      109             0.0000000000
     12693       109  SOPE      H12X           18.0156464066        4.1784168198       -5.6402387525  MEMB      109             0.0000000000
     12694       109  SOPE      H12Y           17.5651117858        2.5229677141       -6.1675680232  MEMB      109             0.0000000000
     12695       109  SOPE      C313           15.8670104675        3.9757500593       -5.7295327826  MEMB      109             0.0000000000
     12696       109  SOPE      H13X           15.1986357304        3.4546558809       -6.4479031797  MEMB      109             0.0000000000
     12697       109  SOPE      H13Y           15.7300134299        5.0736538162       -5.8303300343  MEMB      109             0.0000000000
     12698       109  SOPE      C314           15.6133190199        3.4460979853       -4.3053620140  MEMB      109             0.0000000000
     12699       109  SOPE      H14X           14.5428288558        3.6441030853       -4.0836276063  MEMB      109             0.0000000000
     12700       109  SOPE      H14Y           16.2818742914        4.0674909138       -3.6719370318  MEMB      109             0.0000000000
     12701       109  SOPE      C315           15.9197224977        1.9066501103       -4.1197072486  MEMB      109             0.0000000000
     12702       109  SOPE      H15X           17.0183130558        1.7656568458       -4.0328706211  MEMB      109             0.0000000000
     12703       109  SOPE      H15Y           15.5922653956        1.3923678216       -5.0484740596  MEMB      109             0.0000000000
     12704       109  SOPE      C316           15.3694564093        1.2315412591       -2.8217876962  MEMB      109             0.0000000000
     12705       109  SOPE      H16X           15.6501901548        0.1581650595       -2.8798654341  MEMB      109             0.0000000000
     12706       109  SOPE      H16Y           14.2725640883        1.4021575053       -2.7766387729  MEMB      109             0.0000000000
     12707       109  SOPE      C317           15.9938653833        1.7090237267       -1.4895941921  MEMB      109             0.0000000000
     12708       109  SOPE      H17X           15.7246465486        2.7540501531       -1.2254691809  MEMB      109             0.0000000000
     12709       109  SOPE      H17Y           17.1015227329        1.6346468832       -1.5330016106  MEMB      109             0.0000000000
     12710       109  SOPE      C318           15.4547742560        0.8910560464       -0.2237070114  MEMB      109             0.0000000000
     12711       109  SOPE      H18X           14.3468053319        0.8097392490       -0.2130604275  MEMB      109             0.0000000000
     12712       109  SOPE      H18Y           15.9359352663        1.3272028022        0.6777254431  MEMB      109             0.0000000000
     12713       109  SOPE      H18Z           15.7403260099       -0.1447377873       -0.5063951821  MEMB      109             0.0000000000
     12714       110  CHL1      C3             13.9046640725       -7.9627639018      -17.2887150000  MEMB      110             0.0000000000
     12715       110  CHL1      H3             14.8967473254       -8.0939985348      -16.8061450000  MEMB      110             0.0000000000
     12716       110  CHL1      O3             14.0647445275       -7.8141645582      -18.7112850000  MEMB      110             0.0000000000
     12717       110  CHL1      H3'            14.2953823001       -8.6799608500      -19.0559650000  MEMB      110             0.0000000000
     12718       110  CHL1      C4             13.0845891198       -9.2472086149      -17.0855550000  MEMB      110             0.0000000000
     12719       110  CHL1      H4A            12.0927703675       -9.0266981142      -17.5349950000  MEMB      110             0.0000000000
     12720       110  CHL1      H4B            13.6018007931      -10.0837977032      -17.6022050000  MEMB      110             0.0000000000
     12721       110  CHL1      C5             12.9322384866       -9.6359134518      -15.5785650000  MEMB      110             0.0000000000
     12722       110  CHL1      C6             13.4822024739      -10.7047388416      -14.8931650000  MEMB      110             0.0000000000
     12723       110  CHL1      H6             14.1567474361      -11.3888134519      -15.4289150000  MEMB      110             0.0000000000
     12724       110  CHL1      C7             13.3486558908      -11.1292194483      -13.4554250000  MEMB      110             0.0000000000
     12725       110  CHL1      H7A            12.9859392975      -12.1691488773      -13.3094750000  MEMB      110             0.0000000000
     12726       110  CHL1      H7B            14.3455297340      -11.0420303840      -12.9727550000  MEMB      110             0.0000000000
     12727       110  CHL1      C8             12.2175057731      -10.2503022438      -12.7655850000  MEMB      110             0.0000000000
     12728       110  CHL1      H8             11.2130860646      -10.6863535386      -12.9535450000  MEMB      110             0.0000000000
     12729       110  CHL1      C14            12.5975895404      -10.1658037739      -11.2724050000  MEMB      110             0.0000000000
     12730       110  CHL1      H14            13.4811866269       -9.4945065675      -11.2181250000  MEMB      110             0.0000000000
     12731       110  CHL1      C15            12.9609415006      -11.4744026521      -10.5645850000  MEMB      110             0.0000000000
     12732       110  CHL1      H15A           12.1793775275      -12.2467128081      -10.7289350000  MEMB      110             0.0000000000
     12733       110  CHL1      H15B           13.9673036139      -11.8200755894      -10.8840550000  MEMB      110             0.0000000000
     12734       110  CHL1      C16            12.9326547802      -11.1136416904       -9.0642850000  MEMB      110             0.0000000000
     12735       110  CHL1      H16A           12.2222947700      -11.8032795599       -8.5601950000  MEMB      110             0.0000000000
     12736       110  CHL1      H16B           13.9578560510      -11.1444970642       -8.6372650000  MEMB      110             0.0000000000
     12737       110  CHL1      C17            12.3346251447       -9.6049562428       -9.0398150000  MEMB      110             0.0000000000
     12738       110  CHL1      H17            13.2446984132       -8.9764924893       -8.9343350000  MEMB      110             0.0000000000
     12739       110  CHL1      C13            11.6777793352       -9.3359974597      -10.3726650000  MEMB      110             0.0000000000
     12740       110  CHL1      C18            10.2944284191       -9.9846377740      -10.2948150000  MEMB      110             0.0000000000
     12741       110  CHL1      H18A            9.9841114492      -10.1433603645      -11.3497250000  MEMB      110             0.0000000000
     12742       110  CHL1      H18B           10.3993074632      -10.8829685616       -9.6495850000  MEMB      110             0.0000000000
     12743       110  CHL1      H18C            9.5438154506       -9.2873600041       -9.8650250000  MEMB      110             0.0000000000
     12744       110  CHL1      C12            11.6361256485       -7.8870031438      -10.9381150000  MEMB      110             0.0000000000
     12745       110  CHL1      H12A           11.0297194455       -7.1926535109      -10.3180550000  MEMB      110             0.0000000000
     12746       110  CHL1      H12B           12.6393655876       -7.4252442831      -10.8172350000  MEMB      110             0.0000000000
     12747       110  CHL1      C11            11.1917528694       -7.8598735193      -12.4357650000  MEMB      110             0.0000000000
     12748       110  CHL1      H11A           10.1969859706       -8.2868376493      -12.6856850000  MEMB      110             0.0000000000
     12749       110  CHL1      H11B           11.1785644031       -6.8560749739      -12.9117350000  MEMB      110             0.0000000000
     12750       110  CHL1      C9             12.1647670340       -8.7838632349      -13.3026250000  MEMB      110             0.0000000000
     12751       110  CHL1      H9             13.2235348966       -8.4714018173      -13.1773150000  MEMB      110             0.0000000000
     12752       110  CHL1      C10            12.0446107857       -8.5291637287      -14.8557550000  MEMB      110             0.0000000000
     12753       110  CHL1      C19            10.5887698063       -8.6789276541      -15.2428050000  MEMB      110             0.0000000000
     12754       110  CHL1      H19A           10.0347973714       -7.8084815221      -14.8307650000  MEMB      110             0.0000000000
     12755       110  CHL1      H19B           10.3740775155       -8.4635229971      -16.3113750000  MEMB      110             0.0000000000
     12756       110  CHL1      H19C           10.0819587846       -9.6265080050      -14.9607550000  MEMB      110             0.0000000000
     12757       110  CHL1      C1             12.6015784849       -7.1611434825      -15.1871250000  MEMB      110             0.0000000000
     12758       110  CHL1      H1A            11.9182640149       -6.3279298048      -14.9166450000  MEMB      110             0.0000000000
     12759       110  CHL1      H1B            13.4768296921       -6.9157738982      -14.5483350000  MEMB      110             0.0000000000
     12760       110  CHL1      C2             13.1106873839       -6.7873739580      -16.5990150000  MEMB      110             0.0000000000
     12761       110  CHL1      H2A            13.8160022348       -5.9332819394      -16.5130150000  MEMB      110             0.0000000000
     12762       110  CHL1      H2B            12.2514896682       -6.5269568774      -17.2534450000  MEMB      110             0.0000000000
     12763       110  CHL1      C20            11.4089412924       -9.3838431675       -7.7527450000  MEMB      110             0.0000000000
     12764       110  CHL1      H20            10.5890554056      -10.1281026561       -7.6622850000  MEMB      110             0.0000000000
     12765       110  CHL1      C21            10.7823962172       -7.9787605601       -7.7596650000  MEMB      110             0.0000000000
     12766       110  CHL1      H21A           11.6252434363       -7.2549453766       -7.7650950000  MEMB      110             0.0000000000
     12767       110  CHL1      H21B           10.1432377858       -7.7201456957       -6.8885050000  MEMB      110             0.0000000000
     12768       110  CHL1      H21C           10.0763970222       -7.8189676104       -8.6024850000  MEMB      110             0.0000000000
     12769       110  CHL1      C22            12.3749411933       -9.5363279780       -6.5879950000  MEMB      110             0.0000000000
     12770       110  CHL1      H22A           12.7534563439      -10.5707525179       -6.4430350000  MEMB      110             0.0000000000
     12771       110  CHL1      H22B           13.3088504404       -8.9563723426       -6.7485750000  MEMB      110             0.0000000000
     12772       110  CHL1      C23            11.7251929140       -9.0723451670       -5.2507450000  MEMB      110             0.0000000000
     12773       110  CHL1      H23A           11.2434785561       -8.0733775376       -5.3165150000  MEMB      110             0.0000000000
     12774       110  CHL1      H23B           10.9704785355       -9.8037096289       -4.8904350000  MEMB      110             0.0000000000
     12775       110  CHL1      C24            12.7892362531       -9.0226795731       -4.1127250000  MEMB      110             0.0000000000
     12776       110  CHL1      H24A           13.2810020951       -9.9999370167       -3.9191450000  MEMB      110             0.0000000000
     12777       110  CHL1      H24B           13.7141832913       -8.4854734980       -4.4130650000  MEMB      110             0.0000000000
     12778       110  CHL1      C25            12.3030464398       -8.3664020934       -2.8694950000  MEMB      110             0.0000000000
     12779       110  CHL1      H25            12.1908296078       -7.2946958364       -3.1400050000  MEMB      110             0.0000000000
     12780       110  CHL1      C26            10.9292625740       -8.9306550440       -2.3363950000  MEMB      110             0.0000000000
     12781       110  CHL1      H26A           10.2004772391       -8.5761586195       -3.0963450000  MEMB      110             0.0000000000
     12782       110  CHL1      H26B           10.8445959126      -10.0380693146       -2.3081550000  MEMB      110             0.0000000000
     12783       110  CHL1      H26C           10.7519069047       -8.5078671901       -1.3244150000  MEMB      110             0.0000000000
     12784       110  CHL1      C27            13.3453479000       -8.4788643034       -1.7758950000  MEMB      110             0.0000000000
     12785       110  CHL1      H27A           13.5702080337       -9.5077136239       -1.4220250000  MEMB      110             0.0000000000
     12786       110  CHL1      H27B           14.2779094033       -7.9423210404       -2.0529750000  MEMB      110             0.0000000000
     12787       110  CHL1      H27C           12.9713981264       -7.9746669022       -0.8592350000  MEMB      110             0.0000000000
     12788       111  SLPC      N              -1.3665168612       14.5000162462      -16.6392933640  MEMB      111             0.0000000000
     12789       111  SLPC      C13            -0.8006860675       14.7602835442      -18.0014300733  MEMB      111             0.0000000000
     12790       111  SLPC      H13A           -1.3547653315       15.5918414163      -18.4111954355  MEMB      111             0.0000000000
     12791       111  SLPC      H13B            0.2697818577       14.8257059791      -17.8740793981  MEMB      111             0.0000000000
     12792       111  SLPC      H13C           -1.2190738447       13.8801041310      -18.4668717159  MEMB      111             0.0000000000
     12793       111  SLPC      C14            -0.4538242394       13.4913071754      -15.9356346819  MEMB      111             0.0000000000
     12794       111  SLPC      H14A            0.5288922234       13.8958772406      -15.7433035412  MEMB      111             0.0000000000
     12795       111  SLPC      H14B           -0.9606832429       13.1747837674      -15.0360197706  MEMB      111             0.0000000000
     12796       111  SLPC      H14C           -0.3638642803       12.6755819119      -16.6377027766  MEMB      111             0.0000000000
     12797       111  SLPC      C15            -2.7143834874       13.8792101217      -16.7289258109  MEMB      111             0.0000000000
     12798       111  SLPC      H15A           -2.6832657102       13.0334521398      -17.3998397260  MEMB      111             0.0000000000
     12799       111  SLPC      H15B           -3.1064725510       13.7984054418      -15.7258621860  MEMB      111             0.0000000000
     12800       111  SLPC      H15C           -3.2840609034       14.6010700518      -17.2953053741  MEMB      111             0.0000000000
     12801       111  SLPC      C12            -1.3698146728       15.7328398447      -15.6442082124  MEMB      111             0.0000000000
     12802       111  SLPC      H12A           -0.3145267922       15.9476310735      -15.5627704213  MEMB      111             0.0000000000
     12803       111  SLPC      H12B           -1.7145430582       15.3281585077      -14.7041042229  MEMB      111             0.0000000000
     12804       111  SLPC      C11            -2.0763876187       16.9633743191      -16.2048903875  MEMB      111             0.0000000000
     12805       111  SLPC      H11A           -1.3991864534       17.2853646685      -17.0246719056  MEMB      111             0.0000000000
     12806       111  SLPC      H11B           -2.0279292933       17.6533706723      -15.3354779649  MEMB      111             0.0000000000
     12807       111  SLPC      P              -4.0858080028       17.4262459441      -17.6432581896  MEMB      111             0.0000000000
     12808       111  SLPC      O13            -3.8506074737       18.8785123985      -17.3759234132  MEMB      111             0.0000000000
     12809       111  SLPC      O14            -3.6050274204       16.8074112846      -18.9115937854  MEMB      111             0.0000000000
     12810       111  SLPC      O12            -3.4108922729       16.6165112298      -16.5300178512  MEMB      111             0.0000000000
     12811       111  SLPC      O11            -5.6636753985       17.0582643843      -17.3848242331  MEMB      111             0.0000000000
     12812       111  SLPC      C1             -6.1498365502       16.0543509993      -16.6155474650  MEMB      111             0.0000000000
     12813       111  SLPC      HA             -6.7392633087       15.3174213386      -17.2019189891  MEMB      111             0.0000000000
     12814       111  SLPC      HB             -5.4231654929       15.4258506017      -16.0576429552  MEMB      111             0.0000000000
     12815       111  SLPC      C2             -7.0812548270       16.6133175304      -15.5348730863  MEMB      111             0.0000000000
     12816       111  SLPC      HS             -7.8447397005       17.1983667387      -16.0908670764  MEMB      111             0.0000000000
     12817       111  SLPC      O21            -6.2288438081       17.4515426248      -14.7508279644  MEMB      111             0.0000000000
     12818       111  SLPC      C21            -6.6306890694       18.0742407026      -13.6349844181  MEMB      111             0.0000000000
     12819       111  SLPC      O22            -7.5995746854       17.8684857169      -12.9709535453  MEMB      111             0.0000000000
     12820       111  SLPC      C22            -5.5766087550       19.1333302300      -13.2172846463  MEMB      111             0.0000000000
     12821       111  SLPC      H2R            -4.5514923998       18.7071169970      -13.1748626192  MEMB      111             0.0000000000
     12822       111  SLPC      H2S            -5.6079142921       19.9267983850      -13.9942979243  MEMB      111             0.0000000000
     12823       111  SLPC      C3             -7.6706430430       15.4508586131      -14.6837531587  MEMB      111             0.0000000000
     12824       111  SLPC      HX             -8.1733957257       14.7537730099      -15.3877648353  MEMB      111             0.0000000000
     12825       111  SLPC      HY             -8.3516970036       15.8213582400      -13.8880041755  MEMB      111             0.0000000000
     12826       111  SLPC      O31            -6.6225986017       14.6582086480      -14.0787734671  MEMB      111             0.0000000000
     12827       111  SLPC      C31            -6.9531828070       13.8139106334      -13.2057109451  MEMB      111             0.0000000000
     12828       111  SLPC      O32            -8.0526322389       13.5036872378      -12.8239364138  MEMB      111             0.0000000000
     12829       111  SLPC      C32            -5.5908341605       13.2244932856      -12.6817159227  MEMB      111             0.0000000000
     12830       111  SLPC      H2X            -4.9931524902       12.8359052403      -13.5338290824  MEMB      111             0.0000000000
     12831       111  SLPC      H2Y            -5.8643317809       12.4024868055      -11.9861405578  MEMB      111             0.0000000000
     12832       111  SLPC      C23            -5.7753466214       19.9724296664      -11.9365004594  MEMB      111             0.0000000000
     12833       111  SLPC      H3R            -6.8306502980       20.1659178193      -11.6480254089  MEMB      111             0.0000000000
     12834       111  SLPC      H3S            -5.4239601950       21.0025257541      -12.1595494036  MEMB      111             0.0000000000
     12835       111  SLPC      C24            -5.0606292487       19.4033901552      -10.7018971450  MEMB      111             0.0000000000
     12836       111  SLPC      H4R            -5.1064401782       20.1576654747       -9.8874697896  MEMB      111             0.0000000000
     12837       111  SLPC      H4S            -3.9823968174       19.1525155388      -10.7956932353  MEMB      111             0.0000000000
     12838       111  SLPC      C25            -5.6579651437       18.0327874121      -10.1476889871  MEMB      111             0.0000000000
     12839       111  SLPC      H5R            -4.8480064134       17.5870092958       -9.5315964570  MEMB      111             0.0000000000
     12840       111  SLPC      H5S            -5.6728522661       17.4406094678      -11.0875958505  MEMB      111             0.0000000000
     12841       111  SLPC      C26            -7.0801780757       18.1580034112       -9.6125550272  MEMB      111             0.0000000000
     12842       111  SLPC      H6R            -7.4667796472       17.1172179853       -9.6528771175  MEMB      111             0.0000000000
     12843       111  SLPC      H6S            -7.6571310076       18.8560092154      -10.2561653601  MEMB      111             0.0000000000
     12844       111  SLPC      C27            -7.2383710757       18.7962615184       -8.2489864231  MEMB      111             0.0000000000
     12845       111  SLPC      H7R            -8.2568266789       18.5793244095       -7.8616793358  MEMB      111             0.0000000000
     12846       111  SLPC      H7S            -6.9220204379       19.8568802447       -8.3455860355  MEMB      111             0.0000000000
     12847       111  SLPC      C28            -6.3467152258       18.1196266630       -7.1516687641  MEMB      111             0.0000000000
     12848       111  SLPC      H8R            -6.5828683365       18.5790722696       -6.1680726889  MEMB      111             0.0000000000
     12849       111  SLPC      H8S            -5.3455556197       18.5796346055       -7.2944742876  MEMB      111             0.0000000000
     12850       111  SLPC      C29            -6.3595601857       16.6308071997       -7.1775230180  MEMB      111             0.0000000000
     12851       111  SLPC      H9R            -6.1120800649       16.1210583219       -8.1203429907  MEMB      111             0.0000000000
     12852       111  SLPC      C210           -6.7138099816       15.8440853653       -6.0818361960  MEMB      111             0.0000000000
     12853       111  SLPC      H10R           -6.8511164134       14.7618589526       -6.2230201788  MEMB      111             0.0000000000
     12854       111  SLPC      C211           -7.1255125981       16.3570119093       -4.6764334000  MEMB      111             0.0000000000
     12855       111  SLPC      H11R           -7.7108377308       17.2877430378       -4.8359799853  MEMB      111             0.0000000000
     12856       111  SLPC      H11S           -6.2140053997       16.6430094680       -4.1092642231  MEMB      111             0.0000000000
     12857       111  SLPC      C212           -7.9913390447       15.4929600936       -3.8741596716  MEMB      111             0.0000000000
     12858       111  SLPC      H12R           -8.8276593574       14.9753499047       -4.3667528442  MEMB      111             0.0000000000
     12859       111  SLPC      C213           -7.8111071517       15.1787457959       -2.6021814678  MEMB      111             0.0000000000
     12860       111  SLPC      H13R           -8.5108390920       14.4142858849       -2.2334327177  MEMB      111             0.0000000000
     12861       111  SLPC      C214           -6.8053732387       15.5461570355       -1.6019049509  MEMB      111             0.0000000000
     12862       111  SLPC      H14R           -6.2835587848       16.4814959332       -1.8971535520  MEMB      111             0.0000000000
     12863       111  SLPC      H14S           -5.9717918708       14.8147587642       -1.5346756524  MEMB      111             0.0000000000
     12864       111  SLPC      C215           -7.3829583073       15.9273671019       -0.2114095041  MEMB      111             0.0000000000
     12865       111  SLPC      H15R           -6.6041873056       15.9859889991        0.5787810835  MEMB      111             0.0000000000
     12866       111  SLPC      H15S           -8.0927647547       15.1817539167        0.2063911881  MEMB      111             0.0000000000
     12867       111  SLPC      C216           -7.9380473157       17.3424202308       -0.1803276758  MEMB      111             0.0000000000
     12868       111  SLPC      H16R           -8.9858716409       17.2552076748       -0.5391858150  MEMB      111             0.0000000000
     12869       111  SLPC      H16S           -7.2910743417       18.0084249006       -0.7903983051  MEMB      111             0.0000000000
     12870       111  SLPC      C217           -8.0355703676       17.9175779005        1.2559553330  MEMB      111             0.0000000000
     12871       111  SLPC      H17R           -7.0175918879       18.2536556079        1.5476615980  MEMB      111             0.0000000000
     12872       111  SLPC      H17S           -8.4952462886       17.1547714754        1.9201436640  MEMB      111             0.0000000000
     12873       111  SLPC      C218           -8.8617979027       19.1821577795        1.4501006833  MEMB      111             0.0000000000
     12874       111  SLPC      H18R           -9.0538965100       19.3911998267        2.5242145444  MEMB      111             0.0000000000
     12875       111  SLPC      H18S           -9.7739305509       19.0535002694        0.8289871199  MEMB      111             0.0000000000
     12876       111  SLPC      H18T           -8.3958454940       20.0939675117        1.0190401359  MEMB      111             0.0000000000
     12877       111  SLPC      C33            -4.7791155286       14.3828175129      -12.0218614687  MEMB      111             0.0000000000
     12878       111  SLPC      H3X            -5.3142110552       14.9726616030      -11.2472146239  MEMB      111             0.0000000000
     12879       111  SLPC      H3Y            -4.3793136592       15.2267411164      -12.6237519989  MEMB      111             0.0000000000
     12880       111  SLPC      C34            -3.5928999471       13.8509186396      -11.2611765522  MEMB      111             0.0000000000
     12881       111  SLPC      H4X            -2.7621821193       14.0695098217      -11.9657663612  MEMB      111             0.0000000000
     12882       111  SLPC      H4Y            -3.5855034140       12.7482737614      -11.1253797249  MEMB      111             0.0000000000
     12883       111  SLPC      C35            -3.1727604698       14.6601948736       -9.9837455912  MEMB      111             0.0000000000
     12884       111  SLPC      H5X            -3.9431675363       14.4654431674       -9.2073012013  MEMB      111             0.0000000000
     12885       111  SLPC      H5Y            -3.1654979747       15.7413659137      -10.2393576148  MEMB      111             0.0000000000
     12886       111  SLPC      C36            -1.7663723228       14.3412697725       -9.3899482560  MEMB      111             0.0000000000
     12887       111  SLPC      H6X            -1.0432102798       14.4899453830      -10.2201612666  MEMB      111             0.0000000000
     12888       111  SLPC      H6Y            -1.7815260087       13.2543053072       -9.1606029498  MEMB      111             0.0000000000
     12889       111  SLPC      C37            -1.3903183297       15.1316356895       -8.1048133280  MEMB      111             0.0000000000
     12890       111  SLPC      H7X            -1.4908483375       16.1512161335       -8.5345457638  MEMB      111             0.0000000000
     12891       111  SLPC      H7Y            -0.3081250950       14.9665677272       -7.9152582351  MEMB      111             0.0000000000
     12892       111  SLPC      C38            -2.2717438137       14.9261363456       -6.8606091356  MEMB      111             0.0000000000
     12893       111  SLPC      H8X            -2.1194344275       13.9333878173       -6.3856641400  MEMB      111             0.0000000000
     12894       111  SLPC      H8Y            -3.3703581867       14.9688933656       -7.0204189133  MEMB      111             0.0000000000
     12895       111  SLPC      C39            -1.9187016212       15.9982162217       -5.8430201432  MEMB      111             0.0000000000
     12896       111  SLPC      H9X            -0.8617941164       16.1329520736       -5.5281964197  MEMB      111             0.0000000000
     12897       111  SLPC      H9Y            -2.5966099605       15.7443859355       -5.0002086576  MEMB      111             0.0000000000
     12898       111  SLPC      C310           -2.3709829076       17.4435800790       -6.2764390382  MEMB      111             0.0000000000
     12899       111  SLPC      H10X           -3.3919605062       17.3073202366       -6.6928031423  MEMB      111             0.0000000000
     12900       111  SLPC      H10Y           -1.7013860885       17.7490682756       -7.1086882215  MEMB      111             0.0000000000
     12901       111  SLPC      C311           -2.4844510144       18.5724962339       -5.2738928945  MEMB      111             0.0000000000
     12902       111  SLPC      H11X           -2.8335219241       19.5649119192       -5.6310784242  MEMB      111             0.0000000000
     12903       111  SLPC      H11Y           -1.4585512923       18.7212498221       -4.8742391067  MEMB      111             0.0000000000
     12904       111  SLPC      C312           -3.5117943652       18.2809069655       -4.1882764746  MEMB      111             0.0000000000
     12905       111  SLPC      H12X           -3.3574393645       17.2577431978       -3.7837629460  MEMB      111             0.0000000000
     12906       111  SLPC      H12Y           -4.4912176817       18.2132995895       -4.7083534823  MEMB      111             0.0000000000
     12907       111  SLPC      C313           -3.6613722411       19.3714559351       -3.0982397650  MEMB      111             0.0000000000
     12908       111  SLPC      H13X           -3.9576928745       20.3270405199       -3.5813274255  MEMB      111             0.0000000000
     12909       111  SLPC      H13Y           -2.6411080933       19.4261731193       -2.6619053665  MEMB      111             0.0000000000
     12910       111  SLPC      C314           -4.6281081874       19.0683500924       -1.8830295572  MEMB      111             0.0000000000
     12911       111  SLPC      H14X           -5.4033608372       18.2992403571       -2.0874170846  MEMB      111             0.0000000000
     12912       111  SLPC      H14Y           -5.1861459441       20.0023212000       -1.6580562324  MEMB      111             0.0000000000
     12913       111  SLPC      C315           -3.7857737085       18.4975745159       -0.6972411073  MEMB      111             0.0000000000
     12914       111  SLPC      H15X           -4.4984079209       18.1985272878        0.1009088016  MEMB      111             0.0000000000
     12915       111  SLPC      H15Y           -3.1348594719       19.3064310254       -0.3017883934  MEMB      111             0.0000000000
     12916       111  SLPC      C316           -2.9573734026       17.2082349234       -0.9180491569  MEMB      111             0.0000000000
     12917       111  SLPC      H16X           -2.1207882762       17.5000489913       -1.5883397540  MEMB      111             0.0000000000
     12918       111  SLPC      H16Y           -3.5802136266       16.4662986116       -1.4620358313  MEMB      111             0.0000000000
     12919       111  SLPC      C317           -2.4129895723       16.5467955017        0.4357944275  MEMB      111             0.0000000000
     12920       111  SLPC      H17X           -3.3206865685       16.2041089710        0.9770642013  MEMB      111             0.0000000000
     12921       111  SLPC      H17Y           -1.9573353455       17.3921815061        0.9943850439  MEMB      111             0.0000000000
     12922       111  SLPC      C318           -1.4976871850       15.3627631259        0.1013610535  MEMB      111             0.0000000000
     12923       111  SLPC      H18X           -0.5606485496       15.7445677212       -0.3574467910  MEMB      111             0.0000000000
     12924       111  SLPC      H18Y           -1.9864525348       14.7350012231       -0.6741023422  MEMB      111             0.0000000000
     12925       111  SLPC      H18Z           -1.2627656951       14.9138853431        1.0901192286  MEMB      111             0.0000000000
     12926       112  CHL1      C3            -10.4657938387       12.9099924458      -17.4102000000  MEMB      112             0.0000000000
     12927       112  CHL1      H3            -11.4997942999       12.5197414727      -17.5236800000  MEMB      112             0.0000000000
     12928       112  CHL1      O3             -9.7809407613       13.3677186808      -18.5898000000  MEMB      112             0.0000000000
     12929       112  CHL1      H3'           -10.2709375226       14.1041878957      -18.9627800000  MEMB      112             0.0000000000
     12930       112  CHL1      C4            -10.3603314494       14.0297073348      -16.3543700000  MEMB      112             0.0000000000
     12931       112  CHL1      H4A            -9.2794477746       14.2858280847      -16.3340000000  MEMB      112             0.0000000000
     12932       112  CHL1      H4B           -10.7574030456       14.9680940877      -16.7971800000  MEMB      112             0.0000000000
     12933       112  CHL1      C5            -10.8975975702       13.6317562847      -15.0139000000  MEMB      112             0.0000000000
     12934       112  CHL1      C6            -11.8299661360       14.3417058644      -14.3349900000  MEMB      112             0.0000000000
     12935       112  CHL1      H6            -12.1027097378       15.2769444276      -14.8458000000  MEMB      112             0.0000000000
     12936       112  CHL1      C7            -12.3283154324       14.0782148603      -12.9395600000  MEMB      112             0.0000000000
     12937       112  CHL1      H7A           -12.2835545534       14.9652675162      -12.2721400000  MEMB      112             0.0000000000
     12938       112  CHL1      H7B           -13.3696845683       13.6918482963      -12.9638500000  MEMB      112             0.0000000000
     12939       112  CHL1      C8            -11.4366667526       13.0420105585      -12.2545100000  MEMB      112             0.0000000000
     12940       112  CHL1      H8            -10.5100296468       13.5868559518      -11.9737600000  MEMB      112             0.0000000000
     12941       112  CHL1      C14           -12.0861504444       12.4780323044      -11.0246200000  MEMB      112             0.0000000000
     12942       112  CHL1      H14           -12.8146182343       11.7250553338      -11.3943300000  MEMB      112             0.0000000000
     12943       112  CHL1      C15           -12.8595253076       13.5218459688      -10.1682800000  MEMB      112             0.0000000000
     12944       112  CHL1      H15A          -12.4253978904       14.5395082855      -10.2692700000  MEMB      112             0.0000000000
     12945       112  CHL1      H15B          -13.8978138517       13.5817399968      -10.5590300000  MEMB      112             0.0000000000
     12946       112  CHL1      C16           -12.9284876034       12.9062241593       -8.8211600000  MEMB      112             0.0000000000
     12947       112  CHL1      H16A          -12.4277028295       13.6049832886       -8.1174100000  MEMB      112             0.0000000000
     12948       112  CHL1      H16B          -13.9860345177       12.7970680028       -8.4986500000  MEMB      112             0.0000000000
     12949       112  CHL1      C17           -12.1668498364       11.5320909970       -8.9413200000  MEMB      112             0.0000000000
     12950       112  CHL1      H17           -12.9440059468       10.8353480130       -9.3219800000  MEMB      112             0.0000000000
     12951       112  CHL1      C13           -11.1372155621       11.6571513583      -10.1449200000  MEMB      112             0.0000000000
     12952       112  CHL1      C18            -9.9200388393       12.4067662051       -9.5568900000  MEMB      112             0.0000000000
     12953       112  CHL1      H18A          -10.2719881439       13.2548613565       -8.9314500000  MEMB      112             0.0000000000
     12954       112  CHL1      H18B           -9.2227128870       11.8706459108       -8.8782000000  MEMB      112             0.0000000000
     12955       112  CHL1      H18C           -9.3307364362       12.8651257838      -10.3796500000  MEMB      112             0.0000000000
     12956       112  CHL1      C12           -10.7641489438       10.3830577168      -10.9313100000  MEMB      112             0.0000000000
     12957       112  CHL1      H12A          -10.0355283562        9.7456290872      -10.3862300000  MEMB      112             0.0000000000
     12958       112  CHL1      H12B          -11.7145608867        9.8150114611      -11.0227700000  MEMB      112             0.0000000000
     12959       112  CHL1      C11           -10.0945118407       10.8382628565      -12.2844800000  MEMB      112             0.0000000000
     12960       112  CHL1      H11A           -9.1328138992       11.3311554029      -12.0265800000  MEMB      112             0.0000000000
     12961       112  CHL1      H11B           -9.9850015396        9.9107478136      -12.8861900000  MEMB      112             0.0000000000
     12962       112  CHL1      C9            -10.9149261743       11.9057708964      -13.1646100000  MEMB      112             0.0000000000
     12963       112  CHL1      H9            -11.8961552529       11.4268740453      -13.3699300000  MEMB      112             0.0000000000
     12964       112  CHL1      C10           -10.2060277910       12.3856403802      -14.4055500000  MEMB      112             0.0000000000
     12965       112  CHL1      C19            -8.7779507307       12.8453899699      -14.0888100000  MEMB      112             0.0000000000
     12966       112  CHL1      H19A           -8.2666041179       13.2228193339      -15.0000700000  MEMB      112             0.0000000000
     12967       112  CHL1      H19B           -8.6865728568       13.5998222130      -13.2783700000  MEMB      112             0.0000000000
     12968       112  CHL1      H19C           -8.1893328851       11.9650963255      -13.7527300000  MEMB      112             0.0000000000
     12969       112  CHL1      C1            -10.1438377403       11.2437835103      -15.4880000000  MEMB      112             0.0000000000
     12970       112  CHL1      H1A            -9.5110551567       10.3969135823      -15.1463600000  MEMB      112             0.0000000000
     12971       112  CHL1      H1B           -11.1641276704       10.8361817494      -15.6529200000  MEMB      112             0.0000000000
     12972       112  CHL1      C2             -9.6644842303       11.6581115718      -16.8869000000  MEMB      112             0.0000000000
     12973       112  CHL1      H2A            -9.7706053482       10.7339763542      -17.4943900000  MEMB      112             0.0000000000
     12974       112  CHL1      H2B            -8.5808609189       11.8830221408      -16.7894000000  MEMB      112             0.0000000000
     12975       112  CHL1      C20           -11.7372997781       11.0407701434       -7.5505200000  MEMB      112             0.0000000000
     12976       112  CHL1      H20           -11.1491490413       11.8500472830       -7.0673200000  MEMB      112             0.0000000000
     12977       112  CHL1      C21           -10.8187752476        9.8517146373       -7.5730200000  MEMB      112             0.0000000000
     12978       112  CHL1      H21A          -10.3839804905        9.7283736397       -6.5580900000  MEMB      112             0.0000000000
     12979       112  CHL1      H21B           -9.9319616809       10.0113473280       -8.2229400000  MEMB      112             0.0000000000
     12980       112  CHL1      H21C          -11.2291018282        8.8889367108       -7.9458700000  MEMB      112             0.0000000000
     12981       112  CHL1      C22           -12.9385945399       10.8750935432       -6.5237200000  MEMB      112             0.0000000000
     12982       112  CHL1      H22A          -12.5077205952       10.4570086659       -5.5889100000  MEMB      112             0.0000000000
     12983       112  CHL1      H22B          -13.3203148170       11.8832951570       -6.2551300000  MEMB      112             0.0000000000
     12984       112  CHL1      C23           -14.0434310097        9.9142820344       -6.9419600000  MEMB      112             0.0000000000
     12985       112  CHL1      H23A          -14.6035810481       10.2678890790       -7.8338800000  MEMB      112             0.0000000000
     12986       112  CHL1      H23B          -13.5906810156        8.9222002155       -7.1543400000  MEMB      112             0.0000000000
     12987       112  CHL1      C24           -15.1033853322        9.7184630151       -5.8225700000  MEMB      112             0.0000000000
     12988       112  CHL1      H24A          -14.6947325212        9.3706065025       -4.8497800000  MEMB      112             0.0000000000
     12989       112  CHL1      H24B          -15.6299414587       10.6905930789       -5.7129300000  MEMB      112             0.0000000000
     12990       112  CHL1      C25           -15.9547163287        8.5480688308       -6.1943500000  MEMB      112             0.0000000000
     12991       112  CHL1      H25           -15.2678774591        7.6918999815       -6.3662600000  MEMB      112             0.0000000000
     12992       112  CHL1      C26           -16.9498592440        8.1076909056       -5.0908500000  MEMB      112             0.0000000000
     12993       112  CHL1      H26A          -17.5993231126        8.9118499962       -4.6835900000  MEMB      112             0.0000000000
     12994       112  CHL1      H26B          -17.5835130704        7.2749903153       -5.4642200000  MEMB      112             0.0000000000
     12995       112  CHL1      H26C          -16.4112478299        7.7227909375       -4.1986200000  MEMB      112             0.0000000000
     12996       112  CHL1      C27           -16.7664584059        8.8847555450       -7.4449900000  MEMB      112             0.0000000000
     12997       112  CHL1      H27A          -17.3563892400        7.9587848869       -7.6149400000  MEMB      112             0.0000000000
     12998       112  CHL1      H27B          -17.3561915113        9.7755391797       -7.1399900000  MEMB      112             0.0000000000
     12999       112  CHL1      H27C          -16.1023202173        9.0072143394       -8.3271700000  MEMB      112             0.0000000000
     13000       113  OSM       N              -7.8367087379      -13.3513648376      -20.2843349286  MEMB      113             0.0000000000
     13001       113  OSM       C15            -6.5525376900      -12.8344312465      -19.7383964774  MEMB      113             0.0000000000
     13002       113  OSM       H15A           -5.9810361450      -12.2542216066      -20.4477217933  MEMB      113             0.0000000000
     13003       113  OSM       H15B           -5.8515832588      -13.6183358438      -19.4923141155  MEMB      113             0.0000000000
     13004       113  OSM       H15C           -6.7790262052      -12.3371633210      -18.8068238767  MEMB      113             0.0000000000
     13005       113  OSM       C14            -8.4361438345      -14.3382589825      -19.2275981231  MEMB      113             0.0000000000
     13006       113  OSM       H14A           -9.2948341397      -14.8738798166      -19.6046410044  MEMB      113             0.0000000000
     13007       113  OSM       H14B           -8.7526323586      -13.8554499435      -18.3148382534  MEMB      113             0.0000000000
     13008       113  OSM       H14C           -7.7090891039      -15.0885320094      -18.9539526292  MEMB      113             0.0000000000
     13009       113  OSM       C13            -8.9061439808      -12.3785677156      -20.5272181356  MEMB      113             0.0000000000
     13010       113  OSM       H13A           -8.5425024939      -11.6194203262      -21.2038720220  MEMB      113             0.0000000000
     13011       113  OSM       H13B           -9.2259251092      -11.8445223636      -19.6446448806  MEMB      113             0.0000000000
     13012       113  OSM       H13C           -9.7401367348      -12.8049791717      -21.0648325021  MEMB      113             0.0000000000
     13013       113  OSM       C12            -7.6239988497      -14.0937365758      -21.5103849576  MEMB      113             0.0000000000
     13014       113  OSM       H12A           -7.1892799452      -13.3942633242      -22.2090670895  MEMB      113             0.0000000000
     13015       113  OSM       H12B           -8.6073057381      -14.3725811191      -21.8593166106  MEMB      113             0.0000000000
     13016       113  OSM       C11            -6.8450838648      -15.4748523464      -21.4055198426  MEMB      113             0.0000000000
     13017       113  OSM       H11A           -5.9573735602      -15.2390568920      -20.7804663081  MEMB      113             0.0000000000
     13018       113  OSM       H11B           -6.4725098028      -15.7252393673      -22.4217953728  MEMB      113             0.0000000000
     13019       113  OSM       P              -8.7617281308      -17.2279064097      -21.7240474428  MEMB      113             0.0000000000
     13020       113  OSM       O13           -10.0860979470      -16.6113892331      -21.3293115014  MEMB      113             0.0000000000
     13021       113  OSM       O14            -8.4436616921      -17.0802555889      -23.1694684954  MEMB      113             0.0000000000
     13022       113  OSM       O11            -8.7630644561      -18.7534422919      -21.3150006880  MEMB      113             0.0000000000
     13023       113  OSM       O12            -7.5968466765      -16.5097263969      -20.7687193710  MEMB      113             0.0000000000
     13024       113  OSM       C1S            -7.9821917902      -19.3190489675      -20.2646122283  MEMB      113             0.0000000000
     13025       113  OSM       H1S            -6.8891617998      -19.1578835835      -20.3813689229  MEMB      113             0.0000000000
     13026       113  OSM       H1T            -8.0943071818      -20.4236441266      -20.3048691063  MEMB      113             0.0000000000
     13027       113  OSM       NF             -7.1760324236      -18.9407409900      -17.9099738301  MEMB      113             0.0000000000
     13028       113  OSM       HNF            -7.4079292613      -19.5887292894      -17.1886250865  MEMB      113             0.0000000000
     13029       113  OSM       C2S            -8.3249834614      -18.9501510571      -18.8319147749  MEMB      113             0.0000000000
     13030       113  OSM       H2S            -8.7534899537      -17.9280016115      -18.7550147659  MEMB      113             0.0000000000
     13031       113  OSM       C3S            -9.2872863137      -20.0167636774      -18.3306543583  MEMB      113             0.0000000000
     13032       113  OSM       H3S            -8.7015137087      -20.9377232234      -18.5380789840  MEMB      113             0.0000000000
     13033       113  OSM       O3            -10.5291417108      -20.0056262444      -19.0375319470  MEMB      113             0.0000000000
     13034       113  OSM       HO3           -10.2341392360      -19.4801210917      -19.7848059001  MEMB      113             0.0000000000
     13035       113  OSM       C4S            -9.5680441248      -19.7253842605      -16.8710596663  MEMB      113             0.0000000000
     13036       113  OSM       H4S            -9.3161305308      -20.6430124068      -16.3192462711  MEMB      113             0.0000000000
     13037       113  OSM       C5S           -10.3367134206      -18.7034269933      -16.3577792739  MEMB      113             0.0000000000
     13038       113  OSM       H5S           -10.6338839723      -17.9051656574      -17.0538167440  MEMB      113             0.0000000000
     13039       113  OSM       C6S           -10.6329977441      -18.3967514512      -14.9500804769  MEMB      113             0.0000000000
     13040       113  OSM       H6S           -11.6702503872      -18.6083870714      -14.6129775944  MEMB      113             0.0000000000
     13041       113  OSM       H6T           -10.6268637851      -17.2951717206      -14.8058392320  MEMB      113             0.0000000000
     13042       113  OSM       C7S            -9.8141755226      -19.1176157553      -13.8618207266  MEMB      113             0.0000000000
     13043       113  OSM       H7S            -8.7393112131      -18.9401930659      -14.0797859628  MEMB      113             0.0000000000
     13044       113  OSM       H7T            -9.9326191486      -20.2203847512      -13.9265718974  MEMB      113             0.0000000000
     13045       113  OSM       C8S           -10.1657428695      -18.5446221126      -12.4775404379  MEMB      113             0.0000000000
     13046       113  OSM       H8S           -11.1220719047      -19.0807488416      -12.2977523174  MEMB      113             0.0000000000
     13047       113  OSM       H8T           -10.3183515963      -17.4456355397      -12.5346391723  MEMB      113             0.0000000000
     13048       113  OSM       C9S            -9.2181598301      -19.2552336001      -11.5000089998  MEMB      113             0.0000000000
     13049       113  OSM       H9S            -8.3172802817      -19.6119175390      -12.0436206140  MEMB      113             0.0000000000
     13050       113  OSM       H9T            -9.7283771900      -20.0638041754      -10.9341344391  MEMB      113             0.0000000000
     13051       113  OSM       C10S           -8.4685340953      -18.3514104792      -10.5309211839  MEMB      113             0.0000000000
     13052       113  OSM       H10S           -8.4204064937      -17.3189934544      -10.9384983623  MEMB      113             0.0000000000
     13053       113  OSM       H10T           -7.4490862667      -18.7446832579      -10.3299643629  MEMB      113             0.0000000000
     13054       113  OSM       C11S           -9.2256183403      -18.2156509122       -9.2066245045  MEMB      113             0.0000000000
     13055       113  OSM       H11S           -9.1890971501      -19.2539099200       -8.8129168783  MEMB      113             0.0000000000
     13056       113  OSM       H11T          -10.2788525983      -17.9250830678       -9.4080896157  MEMB      113             0.0000000000
     13057       113  OSM       C12S           -8.4889063447      -17.3859880659       -8.1352454475  MEMB      113             0.0000000000
     13058       113  OSM       H12S           -8.6672561513      -16.3029494994       -8.3071166985  MEMB      113             0.0000000000
     13059       113  OSM       H12T           -7.3912449122      -17.5534396612       -8.1729276740  MEMB      113             0.0000000000
     13060       113  OSM       C13S           -9.0711530522      -17.6544744110       -6.7903217206  MEMB      113             0.0000000000
     13061       113  OSM       H13S           -8.7156303056      -18.7043009151       -6.7142405727  MEMB      113             0.0000000000
     13062       113  OSM       H13T          -10.1803970943      -17.7156857294       -6.7779783107  MEMB      113             0.0000000000
     13063       113  OSM       C14S           -8.5257645683      -16.6998391097       -5.7075987623  MEMB      113             0.0000000000
     13064       113  OSM       H14S           -8.5221503459      -15.6602839153       -6.0995589136  MEMB      113             0.0000000000
     13065       113  OSM       H14T           -7.4734006454      -16.8827334771       -5.4019831306  MEMB      113             0.0000000000
     13066       113  OSM       C15S           -9.3821440649      -16.5358834010       -4.3623340056  MEMB      113             0.0000000000
     13067       113  OSM       H15S          -10.4144586812      -16.2204328450       -4.6252758660  MEMB      113             0.0000000000
     13068       113  OSM       H15T           -8.8584730602      -15.7895840060       -3.7274120366  MEMB      113             0.0000000000
     13069       113  OSM       C16S           -9.4218529940      -17.8555554097       -3.6411063275  MEMB      113             0.0000000000
     13070       113  OSM       H16S           -9.8561918558      -18.7031337878       -4.2131915681  MEMB      113             0.0000000000
     13071       113  OSM       H16T          -10.0061463983      -17.7649507200       -2.7005146280  MEMB      113             0.0000000000
     13072       113  OSM       C17S           -8.0339150372      -18.3729351284       -3.1164666988  MEMB      113             0.0000000000
     13073       113  OSM       H17S           -7.4334202043      -17.5035327342       -2.7731503033  MEMB      113             0.0000000000
     13074       113  OSM       H17T           -7.5344954531      -18.8504965821       -3.9864297565  MEMB      113             0.0000000000
     13075       113  OSM       C18S           -8.1236815888      -19.4938978682       -2.0305174898  MEMB      113             0.0000000000
     13076       113  OSM       H18S           -8.7972894186      -19.2310588670       -1.1870187645  MEMB      113             0.0000000000
     13077       113  OSM       H18T           -7.0598624401      -19.6496696089       -1.7506140564  MEMB      113             0.0000000000
     13078       113  OSM       H18U           -8.4873312224      -20.4479529822       -2.4685341377  MEMB      113             0.0000000000
     13079       113  OSM       C1F            -6.0778144853      -18.1530454065      -17.8536499325  MEMB      113             0.0000000000
     13080       113  OSM       OF             -5.6060720204      -17.3854609514      -18.7332885893  MEMB      113             0.0000000000
     13081       113  OSM       C2F            -5.3112507346      -18.1633433346      -16.5443182029  MEMB      113             0.0000000000
     13082       113  OSM       H2F            -4.4148425354      -18.8196022544      -16.5541987416  MEMB      113             0.0000000000
     13083       113  OSM       H2G            -5.9808763783      -18.5732925651      -15.7582746526  MEMB      113             0.0000000000
     13084       113  OSM       C3F            -4.7555817168      -16.6797253611      -16.1966367460  MEMB      113             0.0000000000
     13085       113  OSM       H3F            -4.0146295675      -16.4310796420      -16.9862481020  MEMB      113             0.0000000000
     13086       113  OSM       H3G            -4.1962157660      -16.8329222818      -15.2490287443  MEMB      113             0.0000000000
     13087       113  OSM       C4F            -5.7931302003      -15.5653194991      -15.9948142271  MEMB      113             0.0000000000
     13088       113  OSM       H4F            -6.4409674818      -15.8220208048      -15.1295209776  MEMB      113             0.0000000000
     13089       113  OSM       H4G            -6.5017384576      -15.5070272599      -16.8485102552  MEMB      113             0.0000000000
     13090       113  OSM       C5F            -5.1876647357      -14.2075681560      -15.5258778407  MEMB      113             0.0000000000
     13091       113  OSM       H5F            -6.0042862904      -13.4686905347      -15.6725408872  MEMB      113             0.0000000000
     13092       113  OSM       H5G            -4.3731472946      -13.8343806112      -16.1828510602  MEMB      113             0.0000000000
     13093       113  OSM       C6F            -4.7920157815      -14.2160764196      -14.0615018765  MEMB      113             0.0000000000
     13094       113  OSM       H6F            -3.7504370867      -14.5480138924      -13.8633803939  MEMB      113             0.0000000000
     13095       113  OSM       H6G            -5.4209011279      -14.9453287473      -13.5074128924  MEMB      113             0.0000000000
     13096       113  OSM       C7F            -4.9769023834      -12.9044825048      -13.4417056804  MEMB      113             0.0000000000
     13097       113  OSM       H7F            -5.9632245099      -12.5142281339      -13.7721464129  MEMB      113             0.0000000000
     13098       113  OSM       H7G            -4.2408216695      -12.2263989663      -13.9241047800  MEMB      113             0.0000000000
     13099       113  OSM       C8F            -4.8993203207      -12.8023134941      -11.8472582682  MEMB      113             0.0000000000
     13100       113  OSM       H8F            -4.8674088386      -11.7712746449      -11.4346312649  MEMB      113             0.0000000000
     13101       113  OSM       H8G            -3.8914407360      -13.1439774977      -11.5282517653  MEMB      113             0.0000000000
     13102       113  OSM       C9F            -6.0888978150      -13.5466788411      -11.2399376971  MEMB      113             0.0000000000
     13103       113  OSM       H9F            -7.0482140910      -13.3337460586      -11.7342773542  MEMB      113             0.0000000000
     13104       113  OSM       C10F           -6.0774940661      -14.5242529143      -10.2409123272  MEMB      113             0.0000000000
     13105       113  OSM       H10F           -7.0368824107      -15.0491028172      -10.1221421374  MEMB      113             0.0000000000
     13106       113  OSM       C11F           -4.8417589611      -15.0064620772       -9.5578198185  MEMB      113             0.0000000000
     13107       113  OSM       H11F           -3.9199161858      -15.0046151329      -10.1779194478  MEMB      113             0.0000000000
     13108       113  OSM       H11G           -4.9865024256      -16.0855812864       -9.3367481995  MEMB      113             0.0000000000
     13109       113  OSM       C12F           -4.6345107982      -14.2906027170       -8.2498648459  MEMB      113             0.0000000000
     13110       113  OSM       H12F           -4.6597356508      -13.1884970720       -8.3878797152  MEMB      113             0.0000000000
     13111       113  OSM       H12G           -3.5723087973      -14.5778332724       -8.0964169190  MEMB      113             0.0000000000
     13112       113  OSM       C13F           -5.3560240766      -14.7740918823       -7.0147211621  MEMB      113             0.0000000000
     13113       113  OSM       H13F           -5.3568548890      -15.8770472747       -6.8812680469  MEMB      113             0.0000000000
     13114       113  OSM       H13G           -6.4527951481      -14.6111464128       -7.0844589879  MEMB      113             0.0000000000
     13115       113  OSM       C14F           -5.0200445875      -14.0650948636       -5.6883451405  MEMB      113             0.0000000000
     13116       113  OSM       H14F           -5.1986987287      -12.9686111510       -5.6996326327  MEMB      113             0.0000000000
     13117       113  OSM       H14G           -3.9455943056      -14.1822510517       -5.4311443292  MEMB      113             0.0000000000
     13118       113  OSM       C15F           -5.8466310794      -14.6626321558       -4.4832566264  MEMB      113             0.0000000000
     13119       113  OSM       H15F           -5.6991158794      -15.7527311750       -4.3275507634  MEMB      113             0.0000000000
     13120       113  OSM       H15G           -6.8644252879      -14.3391271198       -4.7894592376  MEMB      113             0.0000000000
     13121       113  OSM       C16F           -5.5510794902      -13.9792881034       -3.1178969785  MEMB      113             0.0000000000
     13122       113  OSM       H16F           -5.8974624632      -12.9241710717       -3.1505790047  MEMB      113             0.0000000000
     13123       113  OSM       H16G           -4.4935739343      -14.0230992388       -2.7801366861  MEMB      113             0.0000000000
     13124       113  OSM       C17F           -6.5155123752      -14.7173170945       -2.1623831234  MEMB      113             0.0000000000
     13125       113  OSM       H17F           -6.2314784156      -15.7913131568       -2.1757638657  MEMB      113             0.0000000000
     13126       113  OSM       H17G           -7.5786167222      -14.5835662061       -2.4560506592  MEMB      113             0.0000000000
     13127       113  OSM       C18F           -6.5448048001      -14.1469987221       -0.6874051309  MEMB      113             0.0000000000
     13128       113  OSM       H18F           -6.6141052384      -13.0445497270       -0.5685572579  MEMB      113             0.0000000000
     13129       113  OSM       H18G           -5.5661644209      -14.3780707058       -0.2149744922  MEMB      113             0.0000000000
     13130       113  OSM       H18H           -7.3806147375      -14.6159393730       -0.1254109320  MEMB      113             0.0000000000
     13131       114  OSM       N             -14.2475090541       -9.4823085266      -23.0348465164  MEMB      114             0.0000000000
     13132       114  OSM       C15           -14.6322242996       -9.2566311400      -24.4980317297  MEMB      114             0.0000000000
     13133       114  OSM       H15A          -13.8242353080       -8.7020603465      -24.9519093558  MEMB      114             0.0000000000
     13134       114  OSM       H15B          -15.5185483152       -8.6519369279      -24.6212173592  MEMB      114             0.0000000000
     13135       114  OSM       H15C          -14.8684109555      -10.1545047996      -25.0497914858  MEMB      114             0.0000000000
     13136       114  OSM       C14           -12.7597157640       -9.2351823854      -22.9335858441  MEMB      114             0.0000000000
     13137       114  OSM       H14A          -12.1995995729       -9.8655057497      -23.6083911101  MEMB      114             0.0000000000
     13138       114  OSM       H14B          -12.4308474868       -9.4556182614      -21.9287704983  MEMB      114             0.0000000000
     13139       114  OSM       H14C          -12.5378650468       -8.2400074236      -23.2896882626  MEMB      114             0.0000000000
     13140       114  OSM       C13           -14.9401908970       -8.4883909946      -22.2551955991  MEMB      114             0.0000000000
     13141       114  OSM       H13A          -14.7445957151       -7.5356430363      -22.7246783117  MEMB      114             0.0000000000
     13142       114  OSM       H13B          -14.4367523275       -8.4729472849      -21.2998364536  MEMB      114             0.0000000000
     13143       114  OSM       H13C          -16.0092072811       -8.6402719919      -22.2783488960  MEMB      114             0.0000000000
     13144       114  OSM       C12           -14.5549177654      -10.9072414021      -22.5180171046  MEMB      114             0.0000000000
     13145       114  OSM       H12A          -14.1166076402      -11.6577142531      -23.1591681727  MEMB      114             0.0000000000
     13146       114  OSM       H12B          -15.5975387096      -11.0168174114      -22.7775061571  MEMB      114             0.0000000000
     13147       114  OSM       C11           -14.3547409136      -11.4018328464      -21.0435874667  MEMB      114             0.0000000000
     13148       114  OSM       H11A          -13.2585378764      -11.4187340769      -20.8636588838  MEMB      114             0.0000000000
     13149       114  OSM       H11B          -14.6518068999      -12.4643278025      -20.9125247233  MEMB      114             0.0000000000
     13150       114  OSM       P             -14.3524495945       -9.8646055945      -18.9314525465  MEMB      114             0.0000000000
     13151       114  OSM       O13           -13.0991677060       -9.1646133954      -19.3841626715  MEMB      114             0.0000000000
     13152       114  OSM       O14           -15.3250705526       -9.0877783117      -18.1582785940  MEMB      114             0.0000000000
     13153       114  OSM       O11           -13.9685570670      -11.1065943908      -18.0736605178  MEMB      114             0.0000000000
     13154       114  OSM       O12           -15.0728989823      -10.5872001938      -20.1691814121  MEMB      114             0.0000000000
     13155       114  OSM       C1S           -14.9196902059      -12.1032035836      -17.7280444822  MEMB      114             0.0000000000
     13156       114  OSM       H1S           -14.5177641829      -13.1341945651      -17.6288766698  MEMB      114             0.0000000000
     13157       114  OSM       H1T           -15.5364752228      -12.2559312147      -18.6394013533  MEMB      114             0.0000000000
     13158       114  OSM       NF            -14.9687236490      -11.9447096080      -15.2362490680  MEMB      114             0.0000000000
     13159       114  OSM       HNF           -15.1979616801      -12.6690859489      -14.5906965786  MEMB      114             0.0000000000
     13160       114  OSM       C2S           -15.7586098774      -11.7691599404      -16.4131162150  MEMB      114             0.0000000000
     13161       114  OSM       H2S           -16.1316680779      -10.7227286895      -16.4245283077  MEMB      114             0.0000000000
     13162       114  OSM       C3S           -16.9360285225      -12.7235764098      -16.4525511398  MEMB      114             0.0000000000
     13163       114  OSM       H3S           -16.5395039184      -13.7463825713      -16.6284955199  MEMB      114             0.0000000000
     13164       114  OSM       O3            -17.7926700920      -12.3927808172      -17.5432141055  MEMB      114             0.0000000000
     13165       114  OSM       HO3           -17.4501356493      -11.6763342655      -18.0826346858  MEMB      114             0.0000000000
     13166       114  OSM       C4S           -17.8079984376      -12.7675369739      -15.2227876223  MEMB      114             0.0000000000
     13167       114  OSM       H4S           -18.4378237480      -11.8855966670      -15.0343688643  MEMB      114             0.0000000000
     13168       114  OSM       C5S           -17.7926507063      -13.6926391514      -14.2836111674  MEMB      114             0.0000000000
     13169       114  OSM       H5S           -17.2038756983      -14.6109943982      -14.4249182487  MEMB      114             0.0000000000
     13170       114  OSM       C6S           -18.6477392320      -13.6719157575      -13.0769049312  MEMB      114             0.0000000000
     13171       114  OSM       H6S           -19.2804674410      -14.5832931875      -13.0188793703  MEMB      114             0.0000000000
     13172       114  OSM       H6T           -19.3474733047      -12.8120573759      -13.1499582550  MEMB      114             0.0000000000
     13173       114  OSM       C7S           -17.9777790723      -13.4540318924      -11.7226322723  MEMB      114             0.0000000000
     13174       114  OSM       H7S           -17.2715075817      -14.3021145469      -11.5951271879  MEMB      114             0.0000000000
     13175       114  OSM       H7T           -18.7301377985      -13.5203358083      -10.9078427855  MEMB      114             0.0000000000
     13176       114  OSM       C8S           -17.1903912688      -12.2019302698      -11.5721392127  MEMB      114             0.0000000000
     13177       114  OSM       H8S           -17.8664969501      -11.3605906213      -11.3087957706  MEMB      114             0.0000000000
     13178       114  OSM       H8T           -16.6598605065      -11.8706772896      -12.4903604363  MEMB      114             0.0000000000
     13179       114  OSM       C9S           -16.0903378013      -12.2420276337      -10.4689937293  MEMB      114             0.0000000000
     13180       114  OSM       H9S           -15.3753854430      -13.0725238429      -10.6518601602  MEMB      114             0.0000000000
     13181       114  OSM       H9T           -16.6116708532      -12.5586526302       -9.5404018912  MEMB      114             0.0000000000
     13182       114  OSM       C10S          -15.3205956172      -10.8636017873      -10.2565269632  MEMB      114             0.0000000000
     13183       114  OSM       H10S          -15.9731111082       -9.9835152282      -10.0721570286  MEMB      114             0.0000000000
     13184       114  OSM       H10T          -14.6334260351      -10.7287921113      -11.1190496504  MEMB      114             0.0000000000
     13185       114  OSM       C11S          -14.5323419836      -10.8399782266       -8.9229478474  MEMB      114             0.0000000000
     13186       114  OSM       H11S          -13.9311198448      -11.7657194568       -8.7970265630  MEMB      114             0.0000000000
     13187       114  OSM       H11T          -15.2828671456      -10.6928907545       -8.1170949530  MEMB      114             0.0000000000
     13188       114  OSM       C12S          -13.4717026123       -9.6449932313       -8.9149095550  MEMB      114             0.0000000000
     13189       114  OSM       H12S          -14.0174300431       -8.7259099794       -9.2178753703  MEMB      114             0.0000000000
     13190       114  OSM       H12T          -12.8400343779       -9.8554417262       -9.8043067784  MEMB      114             0.0000000000
     13191       114  OSM       C13S          -12.6964347406       -9.4957337165       -7.6408760716  MEMB      114             0.0000000000
     13192       114  OSM       H13S          -11.8609882749       -8.8187266608       -7.9201816433  MEMB      114             0.0000000000
     13193       114  OSM       H13T          -12.2249753107      -10.4587747030       -7.3500167098  MEMB      114             0.0000000000
     13194       114  OSM       C14S          -13.4841436113       -8.8061227820       -6.4768196644  MEMB      114             0.0000000000
     13195       114  OSM       H14S          -14.4181974780       -9.3967990275       -6.3629512297  MEMB      114             0.0000000000
     13196       114  OSM       H14T          -13.7499895738       -7.7648107211       -6.7584510249  MEMB      114             0.0000000000
     13197       114  OSM       C15S          -12.7888202015       -8.6839276734       -5.1337372839  MEMB      114             0.0000000000
     13198       114  OSM       H15S          -12.0920126871       -7.8191949835       -5.1656383002  MEMB      114             0.0000000000
     13199       114  OSM       H15T          -12.1733622324       -9.5770925406       -4.8933441158  MEMB      114             0.0000000000
     13200       114  OSM       C16S          -13.7994063498       -8.4806915957       -3.9507917734  MEMB      114             0.0000000000
     13201       114  OSM       H16S          -14.3313987851       -9.4372200756       -3.7601097995  MEMB      114             0.0000000000
     13202       114  OSM       H16T          -14.4668819277       -7.6165136525       -4.1557141505  MEMB      114             0.0000000000
     13203       114  OSM       C17S          -13.1236544720       -8.3417294988       -2.5317280660  MEMB      114             0.0000000000
     13204       114  OSM       H17S          -12.7281984718       -7.3078531990       -2.6267839570  MEMB      114             0.0000000000
     13205       114  OSM       H17T          -12.2860434053       -9.0627267948       -2.4181879567  MEMB      114             0.0000000000
     13206       114  OSM       C18S          -14.1851088906       -8.4906639525       -1.3571303747  MEMB      114             0.0000000000
     13207       114  OSM       H18S          -14.8546680828       -9.3609319129       -1.5263799875  MEMB      114             0.0000000000
     13208       114  OSM       H18T          -14.7730201705       -7.5501359908       -1.4210733642  MEMB      114             0.0000000000
     13209       114  OSM       H18U          -13.6090697825       -8.5288030699       -0.4078967717  MEMB      114             0.0000000000
     13210       114  OSM       C1F           -13.8813515480      -11.1100466111      -14.8569110628  MEMB      114             0.0000000000
     13211       114  OSM       OF            -13.7616089039       -9.9895981478      -15.4373101578  MEMB      114             0.0000000000
     13212       114  OSM       C2F           -12.9716694288      -11.5360612668      -13.7632274667  MEMB      114             0.0000000000
     13213       114  OSM       H2F           -13.2192642361      -12.5556493466      -13.3979089782  MEMB      114             0.0000000000
     13214       114  OSM       H2G           -13.0205430191      -10.8449890435      -12.8946933014  MEMB      114             0.0000000000
     13215       114  OSM       C3F           -11.5652008765      -11.6121437666      -14.2415711574  MEMB      114             0.0000000000
     13216       114  OSM       H3F           -11.1760384421      -10.6146054619      -14.5378670245  MEMB      114             0.0000000000
     13217       114  OSM       H3G           -11.5356266252      -12.2344725227      -15.1614373986  MEMB      114             0.0000000000
     13218       114  OSM       C4F           -10.6038474625      -12.3328171809      -13.2416432082  MEMB      114             0.0000000000
     13219       114  OSM       H4F           -10.3753485003      -11.5363899864      -12.5014991815  MEMB      114             0.0000000000
     13220       114  OSM       H4G            -9.7159232657      -12.6180959542      -13.8454045964  MEMB      114             0.0000000000
     13221       114  OSM       C5F           -11.0537135911      -13.5102211796      -12.4469554028  MEMB      114             0.0000000000
     13222       114  OSM       H5F           -10.1674972768      -14.1601101464      -12.6100065283  MEMB      114             0.0000000000
     13223       114  OSM       H5G           -11.9447913365      -13.9544913696      -12.9398298301  MEMB      114             0.0000000000
     13224       114  OSM       C6F           -11.3893587169      -13.3609087955      -10.9669376128  MEMB      114             0.0000000000
     13225       114  OSM       H6F           -12.2732636230      -12.6959853900      -10.8624864786  MEMB      114             0.0000000000
     13226       114  OSM       H6G           -10.5433494781      -12.7330223866      -10.6143069256  MEMB      114             0.0000000000
     13227       114  OSM       C7F           -11.6914707118      -14.5662010180      -10.1150474772  MEMB      114             0.0000000000
     13228       114  OSM       H7F           -10.8540546942      -15.2884503426      -10.0082230903  MEMB      114             0.0000000000
     13229       114  OSM       H7G           -12.4373471839      -15.2252369838      -10.6086678266  MEMB      114             0.0000000000
     13230       114  OSM       C8F           -12.4416818262      -14.2466872844       -8.8065904882  MEMB      114             0.0000000000
     13231       114  OSM       H8F           -12.8009963808      -15.2675921530       -8.5556564232  MEMB      114             0.0000000000
     13232       114  OSM       H8G           -13.3728696282      -13.7109115243       -9.0897057355  MEMB      114             0.0000000000
     13233       114  OSM       C9F           -11.7306038439      -13.5635612857       -7.7356582239  MEMB      114             0.0000000000
     13234       114  OSM       H9F           -10.9745917109      -12.8255678115       -8.0419442882  MEMB      114             0.0000000000
     13235       114  OSM       C10F          -12.0179524930      -13.6398587421       -6.3931635757  MEMB      114             0.0000000000
     13236       114  OSM       H10F          -11.3458706557      -13.1810708768       -5.6530147634  MEMB      114             0.0000000000
     13237       114  OSM       C11F          -13.1317609587      -14.5333399755       -5.7198036230  MEMB      114             0.0000000000
     13238       114  OSM       H11F          -12.7944408457      -15.1004977693       -4.8260086266  MEMB      114             0.0000000000
     13239       114  OSM       H11G          -13.4086835049      -15.3403319528       -6.4314205932  MEMB      114             0.0000000000
     13240       114  OSM       C12F          -14.4231121029      -13.6361070183       -5.4371336000  MEMB      114             0.0000000000
     13241       114  OSM       H12F          -15.2401312495      -14.3797965509       -5.3199736391  MEMB      114             0.0000000000
     13242       114  OSM       H12G          -14.5955526768      -13.0569802696       -6.3694414475  MEMB      114             0.0000000000
     13243       114  OSM       C13F          -14.4471223098      -12.6345262448       -4.2446128777  MEMB      114             0.0000000000
     13244       114  OSM       H13F          -15.2152199006      -11.8400337142       -4.3591921735  MEMB      114             0.0000000000
     13245       114  OSM       H13G          -13.4852817436      -12.0950390276       -4.3792879261  MEMB      114             0.0000000000
     13246       114  OSM       C14F          -14.5678782663      -13.3611438055       -2.8923516960  MEMB      114             0.0000000000
     13247       114  OSM       H14F          -13.9930647316      -14.3103803173       -2.9458363040  MEMB      114             0.0000000000
     13248       114  OSM       H14G          -15.6376572046      -13.5120424831       -2.6332700575  MEMB      114             0.0000000000
     13249       114  OSM       C15F          -13.8907520556      -12.4973538774       -1.8268564286  MEMB      114             0.0000000000
     13250       114  OSM       H15F          -14.3241021512      -11.5104290273       -2.0961316781  MEMB      114             0.0000000000
     13251       114  OSM       H15G          -12.8202597304      -12.4106743233       -2.1112041787  MEMB      114             0.0000000000
     13252       114  OSM       C16F          -13.9668487709      -12.8497546763       -0.3521481386  MEMB      114             0.0000000000
     13253       114  OSM       H16F          -13.6427392322      -13.9075319006       -0.2502566119  MEMB      114             0.0000000000
     13254       114  OSM       H16G          -15.0504756623      -12.8929740741       -0.1108889529  MEMB      114             0.0000000000
     13255       114  OSM       C17F          -13.2964846834      -11.9211022084        0.5757256755  MEMB      114             0.0000000000
     13256       114  OSM       H17F          -13.8223008235      -10.9458352102        0.4939170075  MEMB      114             0.0000000000
     13257       114  OSM       H17G          -12.2993375207      -11.7389427403        0.1209333952  MEMB      114             0.0000000000
     13258       114  OSM       C18F          -13.3028745875      -12.3989234891        2.0750583814  MEMB      114             0.0000000000
     13259       114  OSM       H18F          -12.8612601014      -13.4180443038        2.0487736658  MEMB      114             0.0000000000
     13260       114  OSM       H18G          -14.3103339563      -12.6039887724        2.4961235539  MEMB      114             0.0000000000
     13261       114  OSM       H18H          -12.8461601012      -11.7391484605        2.8434530775  MEMB      114             0.0000000000
     13262       115  OSM       N              12.9740827751       12.4701616369      -21.6334124188  MEMB      115             0.0000000000
     13263       115  OSM       C15            13.9647791233       13.3135479831      -20.7629610445  MEMB      115             0.0000000000
     13264       115  OSM       H15A           14.9278656257       13.4995305547      -21.2149284793  MEMB      115             0.0000000000
     13265       115  OSM       H15B           14.0378763722       12.8997311847      -19.7680678851  MEMB      115             0.0000000000
     13266       115  OSM       H15C           13.4371061620       14.2087147880      -20.4686183887  MEMB      115             0.0000000000
     13267       115  OSM       C14            12.3949989653       13.3444776913      -22.7734600342  MEMB      115             0.0000000000
     13268       115  OSM       H14A           11.9171669739       14.2578933497      -22.4513601650  MEMB      115             0.0000000000
     13269       115  OSM       H14B           11.8151105533       12.7866215291      -23.4938250710  MEMB      115             0.0000000000
     13270       115  OSM       H14C           13.3076954544       13.5865673602      -23.2976524444  MEMB      115             0.0000000000
     13271       115  OSM       C13            13.6007626135       11.4259185930      -22.3919136597  MEMB      115             0.0000000000
     13272       115  OSM       H13A           14.2880740869       10.8648810701      -21.7760889916  MEMB      115             0.0000000000
     13273       115  OSM       H13B           14.2176761852       11.9450673895      -23.1104554086  MEMB      115             0.0000000000
     13274       115  OSM       H13C           12.9503058830       10.7124790249      -22.8759693646  MEMB      115             0.0000000000
     13275       115  OSM       C12            11.8192357586       11.8548635199      -20.7985687189  MEMB      115             0.0000000000
     13276       115  OSM       H12A           12.1333911086       11.0081671429      -20.2062751228  MEMB      115             0.0000000000
     13277       115  OSM       H12B           11.0122499349       11.5289043471      -21.4380407896  MEMB      115             0.0000000000
     13278       115  OSM       C11            11.2340934486       12.8314122629      -19.7163197960  MEMB      115             0.0000000000
     13279       115  OSM       H11A           12.0613597207       12.9436428151      -18.9832742164  MEMB      115             0.0000000000
     13280       115  OSM       H11B           10.3568207822       12.3404707955      -19.2433607530  MEMB      115             0.0000000000
     13281       115  OSM       P               9.3114615347       14.3377782425      -20.6389677575  MEMB      115             0.0000000000
     13282       115  OSM       O13             9.1796213838       15.6444954060      -21.3648734495  MEMB      115             0.0000000000
     13283       115  OSM       O14             8.9167272166       13.1010386537      -21.3846057522  MEMB      115             0.0000000000
     13284       115  OSM       O11             8.4847704961       14.3759115752      -19.2903708603  MEMB      115             0.0000000000
     13285       115  OSM       O12            10.8271891550       14.1150492531      -20.2445465083  MEMB      115             0.0000000000
     13286       115  OSM       C1S             8.4693214495       15.6087097869      -18.5413584650  MEMB      115             0.0000000000
     13287       115  OSM       H1S             7.7435768401       16.2916879890      -19.0324353251  MEMB      115             0.0000000000
     13288       115  OSM       H1T             9.4406009968       16.1480602898      -18.5351879713  MEMB      115             0.0000000000
     13289       115  OSM       NF              9.2222561702       14.6678691191      -16.4251021286  MEMB      115             0.0000000000
     13290       115  OSM       HNF             8.8124531991       13.8403900503      -16.0491381776  MEMB      115             0.0000000000
     13291       115  OSM       C2S             8.1079828226       15.2658054452      -17.1019780268  MEMB      115             0.0000000000
     13292       115  OSM       H2S             8.0125574023       16.2647139143      -16.6251164169  MEMB      115             0.0000000000
     13293       115  OSM       C3S             6.9027708948       14.4118937723      -16.9981531045  MEMB      115             0.0000000000
     13294       115  OSM       H3S             7.1851120465       13.3613342631      -17.2238278547  MEMB      115             0.0000000000
     13295       115  OSM       O3              5.8487493820       14.8555669736      -17.8661377671  MEMB      115             0.0000000000
     13296       115  OSM       HO3             6.2622200414       15.5846373210      -18.3342172498  MEMB      115             0.0000000000
     13297       115  OSM       C4S             6.4659185096       14.3972611981      -15.5349121833  MEMB      115             0.0000000000
     13298       115  OSM       H4S             5.9989289645       15.2726634511      -15.0599472405  MEMB      115             0.0000000000
     13299       115  OSM       C5S             6.5454156645       13.4117954175      -14.6572070655  MEMB      115             0.0000000000
     13300       115  OSM       H5S             7.1002377305       12.5482578187      -15.0527765273  MEMB      115             0.0000000000
     13301       115  OSM       C6S             6.1764458266       13.2604458982      -13.2095969737  MEMB      115             0.0000000000
     13302       115  OSM       H6S             5.5551494808       12.3424299067      -13.1350390381  MEMB      115             0.0000000000
     13303       115  OSM       H6T             5.6412190441       14.1840248169      -12.9016109898  MEMB      115             0.0000000000
     13304       115  OSM       C7S             7.2704191241       13.0342629409      -12.2046705318  MEMB      115             0.0000000000
     13305       115  OSM       H7S             7.9789411786       13.8834182303      -12.3107505676  MEMB      115             0.0000000000
     13306       115  OSM       H7T             7.9138084777       12.1744033730      -12.4892975850  MEMB      115             0.0000000000
     13307       115  OSM       C8S             6.7532153910       12.9338707904      -10.7484802266  MEMB      115             0.0000000000
     13308       115  OSM       H8S             6.1695157610       12.0080452819      -10.5575274971  MEMB      115             0.0000000000
     13309       115  OSM       H8T             6.0831130498       13.7753592416      -10.4706660047  MEMB      115             0.0000000000
     13310       115  OSM       C9S             7.8753483835       12.9116419200       -9.6508290431  MEMB      115             0.0000000000
     13311       115  OSM       H9S             8.3819006717       13.9000749018       -9.6777745726  MEMB      115             0.0000000000
     13312       115  OSM       H9T             8.6389994388       12.1860134759      -10.0038474597  MEMB      115             0.0000000000
     13313       115  OSM       C10S            7.3342952016       12.7138669900       -8.3099894415  MEMB      115             0.0000000000
     13314       115  OSM       H10S            7.1548568042       11.6433146931       -8.0732602471  MEMB      115             0.0000000000
     13315       115  OSM       H10T            6.3854041200       13.2443134887       -8.0807448324  MEMB      115             0.0000000000
     13316       115  OSM       C11S            8.4458973807       13.0201202370       -7.2933971283  MEMB      115             0.0000000000
     13317       115  OSM       H11S            8.9502733455       13.9035916078       -7.7399440341  MEMB      115             0.0000000000
     13318       115  OSM       H11T            9.1787752695       12.1932930132       -7.1769168458  MEMB      115             0.0000000000
     13319       115  OSM       C12S            7.7473033844       13.3838331817       -6.0080768865  MEMB      115             0.0000000000
     13320       115  OSM       H12S            7.1881750268       12.4954729230       -5.6440541280  MEMB      115             0.0000000000
     13321       115  OSM       H12T            6.9670064073       14.1524367764       -6.1943714475  MEMB      115             0.0000000000
     13322       115  OSM       C13S            8.8584957807       13.8856688712       -5.0038388967  MEMB      115             0.0000000000
     13323       115  OSM       H13S            9.4770136769       14.6935901780       -5.4499555087  MEMB      115             0.0000000000
     13324       115  OSM       H13T            9.5030363716       13.0021775002       -4.8080553421  MEMB      115             0.0000000000
     13325       115  OSM       C14S            8.3080068362       14.2200898310       -3.6124706197  MEMB      115             0.0000000000
     13326       115  OSM       H14S            9.1118096048       14.4211202085       -2.8723291953  MEMB      115             0.0000000000
     13327       115  OSM       H14T            7.9445351975       13.2662339917       -3.1738714187  MEMB      115             0.0000000000
     13328       115  OSM       C15S            7.3515310789       15.4098425083       -3.5941604886  MEMB      115             0.0000000000
     13329       115  OSM       H15S            6.6375679004       15.2045358006       -4.4202500259  MEMB      115             0.0000000000
     13330       115  OSM       H15T            7.7360541749       16.4296991895       -3.8094621976  MEMB      115             0.0000000000
     13331       115  OSM       C16S            6.5005226638       15.5630990523       -2.2984218478  MEMB      115             0.0000000000
     13332       115  OSM       H16S            6.0736762957       14.5762392912       -2.0187238529  MEMB      115             0.0000000000
     13333       115  OSM       H16T            5.6239146291       16.1881380004       -2.5726581064  MEMB      115             0.0000000000
     13334       115  OSM       C17S            7.2954716512       16.1112411173       -1.1025447879  MEMB      115             0.0000000000
     13335       115  OSM       H17S            7.9486374388       15.2835790638       -0.7523009669  MEMB      115             0.0000000000
     13336       115  OSM       H17T            6.6283760081       16.1852170775       -0.2172015841  MEMB      115             0.0000000000
     13337       115  OSM       C18S            8.0499829834       17.4883067298       -1.2057094090  MEMB      115             0.0000000000
     13338       115  OSM       H18S            7.4105180574       18.2600157678       -1.6851577744  MEMB      115             0.0000000000
     13339       115  OSM       H18T            8.9328997339       17.3747740585       -1.8704577046  MEMB      115             0.0000000000
     13340       115  OSM       H18U            8.3428211965       17.9171632189       -0.2235440051  MEMB      115             0.0000000000
     13341       115  OSM       C1F            10.3681885526       15.2575498294      -15.9577122817  MEMB      115             0.0000000000
     13342       115  OSM       OF             10.7290323349       16.4452195243      -16.1987379347  MEMB      115             0.0000000000
     13343       115  OSM       C2F            11.2679557435       14.2929492128      -15.1403038014  MEMB      115             0.0000000000
     13344       115  OSM       H2F            12.2779826701       14.1136267071      -15.5669304574  MEMB      115             0.0000000000
     13345       115  OSM       H2G            10.7661606103       13.3108629676      -15.0060309221  MEMB      115             0.0000000000
     13346       115  OSM       C3F            11.4806219562       14.9304291777      -13.7858356517  MEMB      115             0.0000000000
     13347       115  OSM       H3F            10.5086386764       15.2635662056      -13.3632376278  MEMB      115             0.0000000000
     13348       115  OSM       H3G            12.1706182324       15.7953483800      -13.8865392757  MEMB      115             0.0000000000
     13349       115  OSM       C4F            12.1997090630       13.9289561067      -12.8412869717  MEMB      115             0.0000000000
     13350       115  OSM       H4F            13.1276191517       14.3751750426      -12.4239232382  MEMB      115             0.0000000000
     13351       115  OSM       H4G            12.5174482067       13.1145644622      -13.5269465482  MEMB      115             0.0000000000
     13352       115  OSM       C5F            11.2719823631       13.2380960949      -11.8863370357  MEMB      115             0.0000000000
     13353       115  OSM       H5F            10.3907984183       12.6792822592      -12.2678637600  MEMB      115             0.0000000000
     13354       115  OSM       H5G            10.7897786687       14.0427724115      -11.2911083877  MEMB      115             0.0000000000
     13355       115  OSM       C6F            11.9384926172       12.2999080396      -10.8824963623  MEMB      115             0.0000000000
     13356       115  OSM       H6F            11.2998770105       11.7249881313      -10.1782529223  MEMB      115             0.0000000000
     13357       115  OSM       H6G            12.6388484927       12.9208536717      -10.2839571100  MEMB      115             0.0000000000
     13358       115  OSM       C7F            12.7101635411       11.0930406847      -11.5359134386  MEMB      115             0.0000000000
     13359       115  OSM       H7F            13.4567629784       11.5661671233      -12.2090122887  MEMB      115             0.0000000000
     13360       115  OSM       H7G            12.0558783559       10.3905307069      -12.0951196758  MEMB      115             0.0000000000
     13361       115  OSM       C8F            13.4697623345       10.3291938696      -10.4460244052  MEMB      115             0.0000000000
     13362       115  OSM       H8F            14.2404081411        9.6040227793      -10.7844815471  MEMB      115             0.0000000000
     13363       115  OSM       H8G            12.8514808921        9.7032562565       -9.7676062833  MEMB      115             0.0000000000
     13364       115  OSM       C9F            14.3241171672       11.3015102875       -9.7790188332  MEMB      115             0.0000000000
     13365       115  OSM       H9F            14.7926826659       11.9592140015      -10.5259268692  MEMB      115             0.0000000000
     13366       115  OSM       C10F           14.5646894498       11.5565223130       -8.5116394524  MEMB      115             0.0000000000
     13367       115  OSM       H10F           15.1922368553       12.4089770716       -8.2124649927  MEMB      115             0.0000000000
     13368       115  OSM       C11F           13.8651876093       10.7312050579       -7.3969938528  MEMB      115             0.0000000000
     13369       115  OSM       H11F           14.5389072646       10.5446982100       -6.5334904310  MEMB      115             0.0000000000
     13370       115  OSM       H11G           13.5713151539        9.7086021133       -7.7167485242  MEMB      115             0.0000000000
     13371       115  OSM       C12F           12.5995257247       11.2898714165       -6.8220835282  MEMB      115             0.0000000000
     13372       115  OSM       H12F           12.0835382898       10.6149325185       -6.1061674787  MEMB      115             0.0000000000
     13373       115  OSM       H12G           11.8189338962       11.5003873783       -7.5841078403  MEMB      115             0.0000000000
     13374       115  OSM       C13F           12.8564799534       12.6161065892       -6.1099168517  MEMB      115             0.0000000000
     13375       115  OSM       H13F           11.8939524228       13.1642060076       -6.0236095379  MEMB      115             0.0000000000
     13376       115  OSM       H13G           13.4585434060       13.2572126450       -6.7887560775  MEMB      115             0.0000000000
     13377       115  OSM       C14F           13.6875672287       12.5779339575       -4.8500225001  MEMB      115             0.0000000000
     13378       115  OSM       H14F           13.6332340270       13.5897275580       -4.3943445137  MEMB      115             0.0000000000
     13379       115  OSM       H14G           14.7145883695       12.3195273293       -5.1858412484  MEMB      115             0.0000000000
     13380       115  OSM       C15F           13.0475918353       11.7657628653       -3.6616033639  MEMB      115             0.0000000000
     13381       115  OSM       H15F           12.9210873623       10.7104026519       -3.9849185322  MEMB      115             0.0000000000
     13382       115  OSM       H15G           12.0258656946       12.1941552690       -3.5786781149  MEMB      115             0.0000000000
     13383       115  OSM       C16F           13.7542694280       11.8878954848       -2.3240153162  MEMB      115             0.0000000000
     13384       115  OSM       H16F           13.7610918528       12.9661870353       -2.0565054342  MEMB      115             0.0000000000
     13385       115  OSM       H16G           14.8282857899       11.6102912421       -2.3852186416  MEMB      115             0.0000000000
     13386       115  OSM       C17F           13.0958328778       11.0150017597       -1.2650126735  MEMB      115             0.0000000000
     13387       115  OSM       H17F           12.9662294642        9.9467508328       -1.5413528763  MEMB      115             0.0000000000
     13388       115  OSM       H17G           12.1305104440       11.5043573146       -1.0140043542  MEMB      115             0.0000000000
     13389       115  OSM       C18F           13.9524124605       11.0361698271        0.0260778585  MEMB      115             0.0000000000
     13390       115  OSM       H18F           13.7372555772       12.0280060336        0.4780615034  MEMB      115             0.0000000000
     13391       115  OSM       H18G           15.0512037676       11.0055665733       -0.1352954242  MEMB      115             0.0000000000
     13392       115  OSM       H18H           13.5880777523       10.3114489347        0.7852625281  MEMB      115             0.0000000000
     13393       116  OSM       N              15.0548124936        8.6514917668      -21.7203038546  MEMB      116             0.0000000000
     13394       116  OSM       C15            15.0071300374        8.1756247231      -23.1778210401  MEMB      116             0.0000000000
     13395       116  OSM       H15A           14.6241077931        9.0273704223      -23.7202444497  MEMB      116             0.0000000000
     13396       116  OSM       H15B           14.3089681355        7.3586988476      -23.2855338608  MEMB      116             0.0000000000
     13397       116  OSM       H15C           15.9540864348        7.9081897970      -23.6229637185  MEMB      116             0.0000000000
     13398       116  OSM       C14            16.0331223826        9.7511301306      -21.6705897369  MEMB      116             0.0000000000
     13399       116  OSM       H14A           17.0124394469        9.4048211333      -21.9662386357  MEMB      116             0.0000000000
     13400       116  OSM       H14B           16.2651339888       10.1896416310      -20.7112784126  MEMB      116             0.0000000000
     13401       116  OSM       H14C           15.7055561573       10.4259017215      -22.4476249903  MEMB      116             0.0000000000
     13402       116  OSM       C13            13.6988099994        9.1606124574      -21.2865656315  MEMB      116             0.0000000000
     13403       116  OSM       H13A           12.9064079029        8.4489329322      -21.4654819377  MEMB      116             0.0000000000
     13404       116  OSM       H13B           13.4801446032       10.0945795347      -21.7828427490  MEMB      116             0.0000000000
     13405       116  OSM       H13C           13.7484422439        9.3707412632      -20.2283679043  MEMB      116             0.0000000000
     13406       116  OSM       C12            15.5133320480        7.4566898606      -20.8031895829  MEMB      116             0.0000000000
     13407       116  OSM       H12A           14.6696547694        6.7953887715      -20.6717004703  MEMB      116             0.0000000000
     13408       116  OSM       H12B           15.8275747932        8.0087306954      -19.9297466760  MEMB      116             0.0000000000
     13409       116  OSM       C11            16.8413360169        6.7368842255      -21.1586177114  MEMB      116             0.0000000000
     13410       116  OSM       H11A           16.7464801506        6.2526756178      -22.1540399239  MEMB      116             0.0000000000
     13411       116  OSM       H11B           17.0272540452        5.9036916290      -20.4476002348  MEMB      116             0.0000000000
     13412       116  OSM       P              19.1015837734        7.9358542052      -20.2210119387  MEMB      116             0.0000000000
     13413       116  OSM       O13            20.2415288864        7.0266204197      -20.4990615656  MEMB      116             0.0000000000
     13414       116  OSM       O14            19.4771165798        9.3772178832      -20.1893344057  MEMB      116             0.0000000000
     13415       116  OSM       O11            18.3005834917        7.5945299320      -18.9641264736  MEMB      116             0.0000000000
     13416       116  OSM       O12            17.9458306904        7.6634346020      -21.3093780628  MEMB      116             0.0000000000
     13417       116  OSM       C1S            18.0701514097        8.4713479369      -17.8587629861  MEMB      116             0.0000000000
     13418       116  OSM       H1S            17.7448828360        9.4645094652      -18.2357929879  MEMB      116             0.0000000000
     13419       116  OSM       H1T            18.9695526338        8.5218564796      -17.2084958066  MEMB      116             0.0000000000
     13420       116  OSM       NF             16.4968647195        8.7960654401      -16.0230491923  MEMB      116             0.0000000000
     13421       116  OSM       HNF            16.9396643648        8.8009563044      -15.1297891122  MEMB      116             0.0000000000
     13422       116  OSM       C2S            16.9852328506        7.8088469016      -16.9534947651  MEMB      116             0.0000000000
     13423       116  OSM       H2S            16.1051225072        7.5265034319      -17.5699433607  MEMB      116             0.0000000000
     13424       116  OSM       C3S            17.5861451492        6.4844309072      -16.1798384952  MEMB      116             0.0000000000
     13425       116  OSM       H3S            18.5515164673        6.8259995122      -15.7488973430  MEMB      116             0.0000000000
     13426       116  OSM       O3             17.7779568564        5.4081319575      -17.0893284755  MEMB      116             0.0000000000
     13427       116  OSM       HO3            17.4657921347        5.6800563726      -17.9554752061  MEMB      116             0.0000000000
     13428       116  OSM       C4S            16.6890244146        6.0831049410      -15.0412951761  MEMB      116             0.0000000000
     13429       116  OSM       H4S            17.0623346811        6.4010922610      -14.0566509967  MEMB      116             0.0000000000
     13430       116  OSM       C5S            15.5452048179        5.4286817643      -15.1057413950  MEMB      116             0.0000000000
     13431       116  OSM       H5S            15.1586270399        5.0829144162      -16.0757940303  MEMB      116             0.0000000000
     13432       116  OSM       C6S            14.6936397921        5.1274564078      -13.8797287132  MEMB      116             0.0000000000
     13433       116  OSM       H6S            15.2114156209        4.2618688934      -13.4139096459  MEMB      116             0.0000000000
     13434       116  OSM       H6T            13.6593358170        4.9345723825      -14.2365653186  MEMB      116             0.0000000000
     13435       116  OSM       C7S            14.6439192137        6.3725657233      -12.8753876095  MEMB      116             0.0000000000
     13436       116  OSM       H7S            14.4509541770        7.2131409533      -13.5757581769  MEMB      116             0.0000000000
     13437       116  OSM       H7T            15.6487289451        6.5867745927      -12.4525485382  MEMB      116             0.0000000000
     13438       116  OSM       C8S            13.5680164582        6.2138100073      -11.7429472564  MEMB      116             0.0000000000
     13439       116  OSM       H8S            13.4654873962        5.1714385948      -11.3724469471  MEMB      116             0.0000000000
     13440       116  OSM       H8T            12.5806920330        6.5080460347      -12.1588037125  MEMB      116             0.0000000000
     13441       116  OSM       C9S            13.7811380271        7.1693715207      -10.5191556511  MEMB      116             0.0000000000
     13442       116  OSM       H9S            12.8720757003        7.1936954002       -9.8809280525  MEMB      116             0.0000000000
     13443       116  OSM       H9T            14.0656596218        8.1282170452      -11.0028744615  MEMB      116             0.0000000000
     13444       116  OSM       C10S           14.8571159760        6.6203589564       -9.6111322382  MEMB      116             0.0000000000
     13445       116  OSM       H10S           15.7607003745        6.4087740438      -10.2219416497  MEMB      116             0.0000000000
     13446       116  OSM       H10T           14.5057181993        5.6955140700       -9.1056600742  MEMB      116             0.0000000000
     13447       116  OSM       C11S           15.4212382451        7.6031477022       -8.5734221847  MEMB      116             0.0000000000
     13448       116  OSM       H11S           15.8035657237        8.4606213926       -9.1674637939  MEMB      116             0.0000000000
     13449       116  OSM       H11T           16.3433316156        7.3001188973       -8.0328311663  MEMB      116             0.0000000000
     13450       116  OSM       C12S           14.4095586389        8.1951690755       -7.6050065500  MEMB      116             0.0000000000
     13451       116  OSM       H12S           13.4140910347        8.0858660522       -8.0860657519  MEMB      116             0.0000000000
     13452       116  OSM       H12T           14.6631093413        9.2654246500       -7.4482074857  MEMB      116             0.0000000000
     13453       116  OSM       C13S           14.3602411803        7.4784428043       -6.2418739604  MEMB      116             0.0000000000
     13454       116  OSM       H13S           15.3416964819        7.5221326539       -5.7230703717  MEMB      116             0.0000000000
     13455       116  OSM       H13T           14.2682626170        6.4037415131       -6.5081043255  MEMB      116             0.0000000000
     13456       116  OSM       C14S           13.2788201932        7.9036623711       -5.3033678153  MEMB      116             0.0000000000
     13457       116  OSM       H14S           13.3101275022        7.1367073439       -4.5001740920  MEMB      116             0.0000000000
     13458       116  OSM       H14T           12.2947322882        7.7660587152       -5.8003158571  MEMB      116             0.0000000000
     13459       116  OSM       C15S           13.2713641918        9.3539692467       -4.7884229909  MEMB      116             0.0000000000
     13460       116  OSM       H15S           12.4225544416        9.5110905691       -4.0890259861  MEMB      116             0.0000000000
     13461       116  OSM       H15T           13.1092342678       10.1246919582       -5.5720177928  MEMB      116             0.0000000000
     13462       116  OSM       C16S           14.4566143660        9.9742042403       -4.1075032623  MEMB      116             0.0000000000
     13463       116  OSM       H16S           14.0459687852       10.9265813201       -3.7091682925  MEMB      116             0.0000000000
     13464       116  OSM       H16T           15.3353734064       10.1078601512       -4.7740154893  MEMB      116             0.0000000000
     13465       116  OSM       C17S           15.0559318286        9.0950387971       -2.9156424078  MEMB      116             0.0000000000
     13466       116  OSM       H17S           15.6377926631        8.2724944300       -3.3838072296  MEMB      116             0.0000000000
     13467       116  OSM       H17T           14.2111270360        8.7512560126       -2.2812614653  MEMB      116             0.0000000000
     13468       116  OSM       C18S           16.1007164853        9.7773825159       -2.0251748181  MEMB      116             0.0000000000
     13469       116  OSM       H18S           16.9704515189        9.9694615659       -2.6892448544  MEMB      116             0.0000000000
     13470       116  OSM       H18T           16.5245864921        9.3245193668       -1.1034535957  MEMB      116             0.0000000000
     13471       116  OSM       H18U           15.6980947849       10.7403672662       -1.6445481943  MEMB      116             0.0000000000
     13472       116  OSM       C1F            15.6411865554        9.7751176000      -16.3819749665  MEMB      116             0.0000000000
     13473       116  OSM       OF             15.3364388207       10.2181410419      -17.5123228874  MEMB      116             0.0000000000
     13474       116  OSM       C2F            14.7845586452       10.1956555916      -15.1867998316  MEMB      116             0.0000000000
     13475       116  OSM       H2F            14.4854996001        9.2773452102      -14.6376266778  MEMB      116             0.0000000000
     13476       116  OSM       H2G            13.9037155135       10.7667497200      -15.5505141089  MEMB      116             0.0000000000
     13477       116  OSM       C3F            15.5317066674       11.1383804096      -14.1370715614  MEMB      116             0.0000000000
     13478       116  OSM       H3F            15.5968838297       12.1192242027      -14.6547765108  MEMB      116             0.0000000000
     13479       116  OSM       H3G            16.4937157018       10.6633606491      -13.8485999826  MEMB      116             0.0000000000
     13480       116  OSM       C4F            14.8182122259       11.3240669567      -12.7702414441  MEMB      116             0.0000000000
     13481       116  OSM       H4F            14.7278464416       10.3509689279      -12.2418147094  MEMB      116             0.0000000000
     13482       116  OSM       H4G            13.8330217450       11.8375368327      -12.7785721725  MEMB      116             0.0000000000
     13483       116  OSM       C5F            15.6225759011       12.1390915608      -11.7696241543  MEMB      116             0.0000000000
     13484       116  OSM       H5F            15.7933823147       13.2080008718      -12.0197828851  MEMB      116             0.0000000000
     13485       116  OSM       H5G            16.6366311160       11.6874290849      -11.7247450483  MEMB      116             0.0000000000
     13486       116  OSM       C6F            15.0349812189       12.0315808471      -10.3535701133  MEMB      116             0.0000000000
     13487       116  OSM       H6F            15.0049756969       10.9276507806      -10.2320830977  MEMB      116             0.0000000000
     13488       116  OSM       H6G            14.0491686846       12.5432580957      -10.3796631573  MEMB      116             0.0000000000
     13489       116  OSM       C7F            15.9006913407       12.6940607342       -9.2422451054  MEMB      116             0.0000000000
     13490       116  OSM       H7F            15.1813936741       12.9442534967       -8.4333343293  MEMB      116             0.0000000000
     13491       116  OSM       H7G            16.2791499784       13.6819592723       -9.5815774278  MEMB      116             0.0000000000
     13492       116  OSM       C8F            17.0882585059       11.8227966540       -8.7803984064  MEMB      116             0.0000000000
     13493       116  OSM       H8F            16.9088826706       10.8018253203       -9.1801019530  MEMB      116             0.0000000000
     13494       116  OSM       H8G            17.2444361227       11.8610062452       -7.6810941076  MEMB      116             0.0000000000
     13495       116  OSM       C9F            18.3958304819       12.2562318808       -9.4285627692  MEMB      116             0.0000000000
     13496       116  OSM       H9F            18.4463131880       13.2828400868       -9.8203874512  MEMB      116             0.0000000000
     13497       116  OSM       C10F           19.5249167754       11.5573893107       -9.6566588942  MEMB      116             0.0000000000
     13498       116  OSM       H10F           20.3312975936       12.1778408701      -10.0747376241  MEMB      116             0.0000000000
     13499       116  OSM       C11F           19.9124370464       10.1161722196       -9.4138325010  MEMB      116             0.0000000000
     13500       116  OSM       H11F           21.0022004055        9.9841822414       -9.5850505316  MEMB      116             0.0000000000
     13501       116  OSM       H11G           19.4159335203        9.4816705944      -10.1788244665  MEMB      116             0.0000000000
     13502       116  OSM       C12F           19.5677069268        9.7074010004       -8.0445762198  MEMB      116             0.0000000000
     13503       116  OSM       H12F           18.4666495853        9.7738092238       -7.9119734147  MEMB      116             0.0000000000
     13504       116  OSM       H12G           19.9507156033       10.3623149373       -7.2329645369  MEMB      116             0.0000000000
     13505       116  OSM       C13F           19.8696532989        8.3345197784       -7.6798551644  MEMB      116             0.0000000000
     13506       116  OSM       H13F           20.9652438106        8.2756311282       -7.5051148120  MEMB      116             0.0000000000
     13507       116  OSM       H13G           19.5386711882        7.6035831250       -8.4482973710  MEMB      116             0.0000000000
     13508       116  OSM       C14F           19.1502255663        7.7949721908       -6.3810234173  MEMB      116             0.0000000000
     13509       116  OSM       H14F           19.3266308461        6.6981464696       -6.3942684540  MEMB      116             0.0000000000
     13510       116  OSM       H14G           18.0537582297        7.9736433161       -6.3685060447  MEMB      116             0.0000000000
     13511       116  OSM       C15F           19.7752958131        8.2450261241       -5.0067859928  MEMB      116             0.0000000000
     13512       116  OSM       H15F           19.4336281669        9.2972743977       -4.9050125250  MEMB      116             0.0000000000
     13513       116  OSM       H15G           20.8817564644        8.3240878841       -5.0685533444  MEMB      116             0.0000000000
     13514       116  OSM       C16F           19.3022363702        7.4836530083       -3.8037264685  MEMB      116             0.0000000000
     13515       116  OSM       H16F           19.5212384726        6.4388302264       -4.1114685353  MEMB      116             0.0000000000
     13516       116  OSM       H16G           18.1975664045        7.4921097147       -3.6856031685  MEMB      116             0.0000000000
     13517       116  OSM       C17F           19.8654187270        7.7980526906       -2.4405387528  MEMB      116             0.0000000000
     13518       116  OSM       H17F           19.6058122474        8.8543636727       -2.2144145961  MEMB      116             0.0000000000
     13519       116  OSM       H17G           20.9730175463        7.7542793037       -2.5155721725  MEMB      116             0.0000000000
     13520       116  OSM       C18F           19.2849841919        6.9427428414       -1.3636160406  MEMB      116             0.0000000000
     13521       116  OSM       H18F           19.6145829163        5.8835405831       -1.4250668512  MEMB      116             0.0000000000
     13522       116  OSM       H18G           18.1976739755        7.1702585914       -1.3458943582  MEMB      116             0.0000000000
     13523       116  OSM       H18H           19.7228736698        7.2598389849       -0.3930372632  MEMB      116             0.0000000000
     13524       117  OSM       N               5.0354381924      -16.7361359813      -22.1124918151  MEMB      117             0.0000000000
     13525       117  OSM       C15             4.8755815347      -15.2553511292      -21.7333140150  MEMB      117             0.0000000000
     13526       117  OSM       H15A            4.8449670398      -15.2995551826      -20.6546533891  MEMB      117             0.0000000000
     13527       117  OSM       H15B            3.9708461390      -14.7965624975      -22.1039442849  MEMB      117             0.0000000000
     13528       117  OSM       H15C            5.7804070358      -14.7280915973      -21.9972988141  MEMB      117             0.0000000000
     13529       117  OSM       C14             3.7273665744      -17.5202776439      -22.0855417122  MEMB      117             0.0000000000
     13530       117  OSM       H14A            3.2969341755      -17.6015925075      -21.0983661054  MEMB      117             0.0000000000
     13531       117  OSM       H14B            3.7269525232      -18.5667529665      -22.3525422714  MEMB      117             0.0000000000
     13532       117  OSM       H14C            3.0367874896      -17.1039054024      -22.8039667802  MEMB      117             0.0000000000
     13533       117  OSM       C13             5.4133800840      -16.5740393385      -23.5657861898  MEMB      117             0.0000000000
     13534       117  OSM       H13A            4.8055861056      -15.8642526847      -24.1072556359  MEMB      117             0.0000000000
     13535       117  OSM       H13B            5.2347253038      -17.5383504298      -24.0180984878  MEMB      117             0.0000000000
     13536       117  OSM       H13C            6.4653425801      -16.3469590299      -23.6563913027  MEMB      117             0.0000000000
     13537       117  OSM       C12             6.1324181252      -17.2344826505      -21.2849878015  MEMB      117             0.0000000000
     13538       117  OSM       H12A            5.6734045796      -17.1446784976      -20.3115188579  MEMB      117             0.0000000000
     13539       117  OSM       H12B            6.9473962295      -16.5357291454      -21.4031149211  MEMB      117             0.0000000000
     13540       117  OSM       C11             6.5331027214      -18.7193365865      -21.3582653429  MEMB      117             0.0000000000
     13541       117  OSM       H11A            7.3796066184      -18.9402570192      -20.6734689112  MEMB      117             0.0000000000
     13542       117  OSM       H11B            6.9399338811      -18.9300028143      -22.3704062232  MEMB      117             0.0000000000
     13543       117  OSM       P               5.0400169693      -20.0118715755      -19.7471916018  MEMB      117             0.0000000000
     13544       117  OSM       O13             3.7706834286      -20.7570740047      -19.7729285382  MEMB      117             0.0000000000
     13545       117  OSM       O14             6.1584596941      -20.6038867325      -18.9573395034  MEMB      117             0.0000000000
     13546       117  OSM       O11             4.6899854292      -18.5321377844      -19.1842863487  MEMB      117             0.0000000000
     13547       117  OSM       O12             5.4793006854      -19.6559177728      -21.1978671306  MEMB      117             0.0000000000
     13548       117  OSM       C1S             3.9924514443      -18.4062547168      -17.9320459790  MEMB      117             0.0000000000
     13549       117  OSM       H1S             3.4436857146      -19.3477074332      -17.7156112931  MEMB      117             0.0000000000
     13550       117  OSM       H1T             3.2463314831      -17.5863736396      -18.0056737856  MEMB      117             0.0000000000
     13551       117  OSM       NF              4.5219410823      -18.2185428638      -15.4749502051  MEMB      117             0.0000000000
     13552       117  OSM       HNF             4.4561229701      -17.3274060229      -15.0327375438  MEMB      117             0.0000000000
     13553       117  OSM       C2S             5.0635209244      -18.1451145926      -16.8382350116  MEMB      117             0.0000000000
     13554       117  OSM       H2S             5.8663654232      -18.9110291405      -16.8942404302  MEMB      117             0.0000000000
     13555       117  OSM       C3S             5.6937556816      -16.7828361053      -17.0378975261  MEMB      117             0.0000000000
     13556       117  OSM       H3S             4.9093278284      -15.9961706400      -17.0501960819  MEMB      117             0.0000000000
     13557       117  OSM       O3              6.4236457493      -16.6239104499      -18.2540778326  MEMB      117             0.0000000000
     13558       117  OSM       HO3             6.2379774404      -17.3854709683      -18.8082914406  MEMB      117             0.0000000000
     13559       117  OSM       C4S             6.6974876089      -16.5099983172      -15.9355728741  MEMB      117             0.0000000000
     13560       117  OSM       H4S             7.6640528667      -17.0336462802      -15.9748754586  MEMB      117             0.0000000000
     13561       117  OSM       C5S             6.5852003505      -15.5834697731      -14.9582062068  MEMB      117             0.0000000000
     13562       117  OSM       H5S             5.7070834008      -14.9246087893      -14.8888313099  MEMB      117             0.0000000000
     13563       117  OSM       C6S             7.6444470727      -15.3950563711      -13.8834425167  MEMB      117             0.0000000000
     13564       117  OSM       H6S             7.6878814642      -14.3398651715      -13.5384711276  MEMB      117             0.0000000000
     13565       117  OSM       H6T             8.6365925726      -15.6471468705      -14.3152050664  MEMB      117             0.0000000000
     13566       117  OSM       C7S             7.2596412186      -16.2260942202      -12.6939770089  MEMB      117             0.0000000000
     13567       117  OSM       H7S             8.0922915182      -16.0267662419      -11.9859635279  MEMB      117             0.0000000000
     13568       117  OSM       H7T             7.4973033696      -17.3020523846      -12.8359339687  MEMB      117             0.0000000000
     13569       117  OSM       C8S             5.9214806384      -15.9811827343      -11.9588675238  MEMB      117             0.0000000000
     13570       117  OSM       H8S             5.0294531405      -16.3033211002      -12.5375171620  MEMB      117             0.0000000000
     13571       117  OSM       H8T             5.8469993310      -14.8754788785      -11.8801740539  MEMB      117             0.0000000000
     13572       117  OSM       C9S             5.9075278172      -16.5783516556      -10.5074826649  MEMB      117             0.0000000000
     13573       117  OSM       H9S             4.9626909955      -16.2814748189      -10.0040257586  MEMB      117             0.0000000000
     13574       117  OSM       H9T             6.8061664752      -16.1733600132       -9.9948899733  MEMB      117             0.0000000000
     13575       117  OSM       C10S            5.8206617785      -18.1292540305      -10.5322350624  MEMB      117             0.0000000000
     13576       117  OSM       H10S            6.5872825134      -18.4902856875      -11.2507546780  MEMB      117             0.0000000000
     13577       117  OSM       H10T            4.7834027681      -18.3194381911      -10.8818702707  MEMB      117             0.0000000000
     13578       117  OSM       C11S            6.1597068302      -18.8108392119       -9.1458238451  MEMB      117             0.0000000000
     13579       117  OSM       H11S            7.1564075148      -18.4851813324       -8.7785973474  MEMB      117             0.0000000000
     13580       117  OSM       H11T            6.1521587760      -19.8714687707       -9.4764739913  MEMB      117             0.0000000000
     13581       117  OSM       C12S            5.0495237369      -18.5502783857       -8.1196893723  MEMB      117             0.0000000000
     13582       117  OSM       H12S            4.0790722082      -18.9242996579       -8.5103974851  MEMB      117             0.0000000000
     13583       117  OSM       H12T            4.8630424532      -17.4829321240       -7.8740920323  MEMB      117             0.0000000000
     13584       117  OSM       C13S            5.3378030567      -19.2997327280       -6.8679940470  MEMB      117             0.0000000000
     13585       117  OSM       H13S            6.1999986129      -18.7631562203       -6.4174097439  MEMB      117             0.0000000000
     13586       117  OSM       H13T            5.6557341548      -20.3211481139       -7.1679120158  MEMB      117             0.0000000000
     13587       117  OSM       C14S            4.2946657941      -19.4261446273       -5.8176019101  MEMB      117             0.0000000000
     13588       117  OSM       H14S            3.4089300330      -19.7698134799       -6.3935228671  MEMB      117             0.0000000000
     13589       117  OSM       H14T            4.0480213838      -18.4689506046       -5.3103868789  MEMB      117             0.0000000000
     13590       117  OSM       C15S            4.5534171260      -20.5294436408       -4.7336861890  MEMB      117             0.0000000000
     13591       117  OSM       H15S            5.6324872318      -20.4245799364       -4.4909263632  MEMB      117             0.0000000000
     13592       117  OSM       H15T            4.3204900355      -21.5424632525       -5.1259327968  MEMB      117             0.0000000000
     13593       117  OSM       C16S            3.6743908126      -20.6103102466       -3.4721122032  MEMB      117             0.0000000000
     13594       117  OSM       H16S            4.1984908129      -21.3219887019       -2.7989451030  MEMB      117             0.0000000000
     13595       117  OSM       H16T            2.7190059667      -21.0999202617       -3.7581924127  MEMB      117             0.0000000000
     13596       117  OSM       C17S            3.4414438519      -19.2365142623       -2.8181283003  MEMB      117             0.0000000000
     13597       117  OSM       H17S            3.0113698497      -18.5617463972       -3.5888712005  MEMB      117             0.0000000000
     13598       117  OSM       H17T            4.4035138990      -18.7188441854       -2.6162363262  MEMB      117             0.0000000000
     13599       117  OSM       C18S            2.5153547951      -19.2800645047       -1.6349670283  MEMB      117             0.0000000000
     13600       117  OSM       H18S            1.5647444841      -19.6598489960       -2.0667360844  MEMB      117             0.0000000000
     13601       117  OSM       H18T            2.3661721721      -18.2680383277       -1.2015295903  MEMB      117             0.0000000000
     13602       117  OSM       H18U            2.7656801602      -20.0610989461       -0.8855389221  MEMB      117             0.0000000000
     13603       117  OSM       C1F             4.0739222660      -19.4338952131      -14.9339667146  MEMB      117             0.0000000000
     13604       117  OSM       OF              4.2203997402      -20.5051825356      -15.5638453014  MEMB      117             0.0000000000
     13605       117  OSM       C2F             3.4824405053      -19.3558633839      -13.5287306623  MEMB      117             0.0000000000
     13606       117  OSM       H2F             3.7357750005      -18.3901993554      -13.0412517114  MEMB      117             0.0000000000
     13607       117  OSM       H2G             3.8600140873      -20.1918683723      -12.9019489563  MEMB      117             0.0000000000
     13608       117  OSM       C3F             1.9562600030      -19.4265879389      -13.6783937531  MEMB      117             0.0000000000
     13609       117  OSM       H3F             1.6084790099      -20.2012113455      -14.3948629042  MEMB      117             0.0000000000
     13610       117  OSM       H3G             1.7835474194      -18.3921845505      -14.0451373263  MEMB      117             0.0000000000
     13611       117  OSM       C4F             1.0025915689      -19.3498656466      -12.4608285201  MEMB      117             0.0000000000
     13612       117  OSM       H4F             1.1695969941      -20.1543721422      -11.7130318406  MEMB      117             0.0000000000
     13613       117  OSM       H4G            -0.0625948261      -19.3419747537      -12.7764818276  MEMB      117             0.0000000000
     13614       117  OSM       C5F             1.2350374943      -18.0368880799      -11.7014988122  MEMB      117             0.0000000000
     13615       117  OSM       H5F             1.1805601532      -17.2760941179      -12.5093015622  MEMB      117             0.0000000000
     13616       117  OSM       H5G             2.1757858705      -18.0160750723      -11.1108382098  MEMB      117             0.0000000000
     13617       117  OSM       C6F             0.2788744082      -17.8462818261      -10.5431955594  MEMB      117             0.0000000000
     13618       117  OSM       H6F             0.4709418824      -18.6254023896       -9.7748189844  MEMB      117             0.0000000000
     13619       117  OSM       H6G            -0.7699899500      -18.0369149462      -10.8560270056  MEMB      117             0.0000000000
     13620       117  OSM       C7F             0.4588909705      -16.4990403298       -9.8253953699  MEMB      117             0.0000000000
     13621       117  OSM       H7F             0.0629441880      -15.6828827248      -10.4668263805  MEMB      117             0.0000000000
     13622       117  OSM       H7G             1.5645267731      -16.3961027789       -9.7894144746  MEMB      117             0.0000000000
     13623       117  OSM       C8F            -0.1126443279      -16.2863833493       -8.3130031307  MEMB      117             0.0000000000
     13624       117  OSM       H8F            -1.2081194193      -16.4711742596       -8.3026138408  MEMB      117             0.0000000000
     13625       117  OSM       H8G            -0.1405479643      -15.1775902280       -8.2488170352  MEMB      117             0.0000000000
     13626       117  OSM       C9F             0.5317921703      -17.0714897754       -7.1925860801  MEMB      117             0.0000000000
     13627       117  OSM       H9F             0.2939052659      -18.1454073046       -7.2031218093  MEMB      117             0.0000000000
     13628       117  OSM       C10F            1.2232582602      -16.4593984781       -6.2598565772  MEMB      117             0.0000000000
     13629       117  OSM       H10F            1.6163810447      -17.1410246422       -5.4911957028  MEMB      117             0.0000000000
     13630       117  OSM       C11F            1.5789396927      -14.9908809807       -6.0136625714  MEMB      117             0.0000000000
     13631       117  OSM       H11F            1.5216663950      -14.7167118497       -4.9385481783  MEMB      117             0.0000000000
     13632       117  OSM       H11G            0.8875375935      -14.2969323605       -6.5377994259  MEMB      117             0.0000000000
     13633       117  OSM       C12F            2.9873493499      -14.7321917999       -6.4843944356  MEMB      117             0.0000000000
     13634       117  OSM       H12F            3.1427109734      -13.6625077491       -6.7412203290  MEMB      117             0.0000000000
     13635       117  OSM       H12G            3.1936086111      -15.1467156723       -7.4943194344  MEMB      117             0.0000000000
     13636       117  OSM       C13F            4.0885451805      -15.0934744041       -5.5146905299  MEMB      117             0.0000000000
     13637       117  OSM       H13F            4.0396568772      -16.1905933540       -5.3465802245  MEMB      117             0.0000000000
     13638       117  OSM       H13G            3.8149019738      -14.7032344875       -4.5111210756  MEMB      117             0.0000000000
     13639       117  OSM       C14F            5.5588238467      -14.6922902687       -5.9223184270  MEMB      117             0.0000000000
     13640       117  OSM       H14F            5.5114413271      -13.5983289137       -5.7343718700  MEMB      117             0.0000000000
     13641       117  OSM       H14G            5.6625001002      -14.9406383294       -7.0002310319  MEMB      117             0.0000000000
     13642       117  OSM       C15F            6.7558895462      -15.3167258693       -5.1991791904  MEMB      117             0.0000000000
     13643       117  OSM       H15F            7.7292305734      -14.8425589007       -5.4483654264  MEMB      117             0.0000000000
     13644       117  OSM       H15G            6.7964766346      -16.3796745451       -5.5198241531  MEMB      117             0.0000000000
     13645       117  OSM       C16F            6.6370648879      -15.4706859949       -3.6471058211  MEMB      117             0.0000000000
     13646       117  OSM       H16F            5.7029498321      -16.0338015698       -3.4357975053  MEMB      117             0.0000000000
     13647       117  OSM       H16G            6.4073589653      -14.4683204963       -3.2266067402  MEMB      117             0.0000000000
     13648       117  OSM       C17F            7.8276570656      -16.0545867225       -2.9945731126  MEMB      117             0.0000000000
     13649       117  OSM       H17F            8.6861238623      -15.3493557398       -2.9966730070  MEMB      117             0.0000000000
     13650       117  OSM       H17G            7.9610242828      -16.9261052301       -3.6705835046  MEMB      117             0.0000000000
     13651       117  OSM       C18F            7.5731411399      -16.4137385857       -1.4923092128  MEMB      117             0.0000000000
     13652       117  OSM       H18F            7.3716254136      -15.4138205292       -1.0519962586  MEMB      117             0.0000000000
     13653       117  OSM       H18G            8.5765660062      -16.6449145693       -1.0751564216  MEMB      117             0.0000000000
     13654       117  OSM       H18H            6.8080198540      -17.2104973991       -1.3736252407  MEMB      117             0.0000000000
     13655       118  SAPC      N               4.0635860655       16.6745844012      -19.4547463771  MEMB      118             0.0000000000
     13656       118  SAPC      C12             5.5039377224       16.8068947916      -19.9625728014  MEMB      118             0.0000000000
     13657       118  SAPC      H12A            5.4881518588       16.5080633506      -21.0002869469  MEMB      118             0.0000000000
     13658       118  SAPC      H12B            6.0036172330       16.0143516468      -19.4253618203  MEMB      118             0.0000000000
     13659       118  SAPC      C13             4.0457839112       17.0334574878      -17.9975662872  MEMB      118             0.0000000000
     13660       118  SAPC      H13A            4.8125621509       16.4555258599      -17.5031513694  MEMB      118             0.0000000000
     13661       118  SAPC      H13B            4.1680276897       18.1005183198      -17.8842625088  MEMB      118             0.0000000000
     13662       118  SAPC      H13C            3.1025182668       16.8015677477      -17.5254678008  MEMB      118             0.0000000000
     13663       118  SAPC      C14             3.0226738188       17.4818357227      -20.1200177743  MEMB      118             0.0000000000
     13664       118  SAPC      H14A            3.0586880461       17.3286428549      -21.1884909339  MEMB      118             0.0000000000
     13665       118  SAPC      H14B            2.0030854529       17.2237635124      -19.8745836239  MEMB      118             0.0000000000
     13666       118  SAPC      H14C            3.1772680341       18.5327079993      -19.9246510332  MEMB      118             0.0000000000
     13667       118  SAPC      C15             3.5694261188       15.2432800953      -19.6274544448  MEMB      118             0.0000000000
     13668       118  SAPC      H15A            3.6426740692       14.9401968093      -20.6614637439  MEMB      118             0.0000000000
     13669       118  SAPC      H15B            4.2403738476       14.5425294568      -19.1529255984  MEMB      118             0.0000000000
     13670       118  SAPC      H15C            2.5253251241       15.1884848990      -19.3568058373  MEMB      118             0.0000000000
     13671       118  SAPC      C11             6.2604868268       18.1956164952      -19.8122981619  MEMB      118             0.0000000000
     13672       118  SAPC      H11A            7.2736389707       18.1449831021      -20.2653765439  MEMB      118             0.0000000000
     13673       118  SAPC      H11B            6.3639585223       18.2578290061      -18.7078778230  MEMB      118             0.0000000000
     13674       118  SAPC      P               6.2043191185       20.5624735347      -20.6884347398  MEMB      118             0.0000000000
     13675       118  SAPC      O13             7.4163144819       20.6987715296      -19.7836797385  MEMB      118             0.0000000000
     13676       118  SAPC      O14             6.1691340136       20.8179210775      -22.1859893642  MEMB      118             0.0000000000
     13677       118  SAPC      O12             5.4528636636       19.2450739054      -20.4217541695  MEMB      118             0.0000000000
     13678       118  SAPC      O11             5.1662535501       21.5740493949      -19.9454861285  MEMB      118             0.0000000000
     13679       118  SAPC      C1              4.0134362801       21.7902202908      -20.7067901552  MEMB      118             0.0000000000
     13680       118  SAPC      HA              4.1888203474       22.3739745970      -21.6356563642  MEMB      118             0.0000000000
     13681       118  SAPC      HB              3.5403565363       20.8219323288      -20.9768546764  MEMB      118             0.0000000000
     13682       118  SAPC      C2              3.0005288722       22.5461774224      -19.8055895784  MEMB      118             0.0000000000
     13683       118  SAPC      HS              2.2886006142       23.1043357115      -20.4505224771  MEMB      118             0.0000000000
     13684       118  SAPC      O21             3.6630427184       23.4966259508      -18.9382867352  MEMB      118             0.0000000000
     13685       118  SAPC      C21             4.5086534612       24.2984420236      -19.3863034900  MEMB      118             0.0000000000
     13686       118  SAPC      O22             4.8781900605       24.4426310227      -20.5757158436  MEMB      118             0.0000000000
     13687       118  SAPC      C22             5.0797213461       25.1854622736      -18.2884384667  MEMB      118             0.0000000000
     13688       118  SAPC      H2R             5.2774768599       26.1941893565      -18.7099636554  MEMB      118             0.0000000000
     13689       118  SAPC      H2S             4.4539914188       25.1411639492      -17.3714756756  MEMB      118             0.0000000000
     13690       118  SAPC      C3              2.1947448959       21.5540430139      -18.9142678128  MEMB      118             0.0000000000
     13691       118  SAPC      HX              1.7210976660       20.8854534261      -19.6645793072  MEMB      118             0.0000000000
     13692       118  SAPC      HY              1.3246853147       21.9430761194      -18.3433297437  MEMB      118             0.0000000000
     13693       118  SAPC      O31             2.9845090571       20.6780870345      -18.0249637943  MEMB      118             0.0000000000
     13694       118  SAPC      C31             2.9090138025       21.2381053975      -16.7333659553  MEMB      118             0.0000000000
     13695       118  SAPC      O32             2.2345464626       22.1919605694      -16.4046211327  MEMB      118             0.0000000000
     13696       118  SAPC      C32             3.7932257422       20.4648342177      -15.7013429281  MEMB      118             0.0000000000
     13697       118  SAPC      H2X             4.0801307199       21.1997349214      -14.9190847780  MEMB      118             0.0000000000
     13698       118  SAPC      H2Y             4.7072287497       20.2632521560      -16.2999110595  MEMB      118             0.0000000000
     13699       118  SAPC      C23             6.4018354611       24.5239903501      -17.9044970966  MEMB      118             0.0000000000
     13700       118  SAPC      H3R             6.9975283761       25.3088043460      -17.3911375051  MEMB      118             0.0000000000
     13701       118  SAPC      H3S             6.9808788176       24.3511210780      -18.8367772140  MEMB      118             0.0000000000
     13702       118  SAPC      C24             6.3529555865       23.1652689504      -17.1007196625  MEMB      118             0.0000000000
     13703       118  SAPC      H4R             5.8930022674       22.3904744712      -17.7506868125  MEMB      118             0.0000000000
     13704       118  SAPC      H4S             5.6258652010       23.2330668330      -16.2634237622  MEMB      118             0.0000000000
     13705       118  SAPC      C25             7.8050505454       22.7955864683      -16.6332750521  MEMB      118             0.0000000000
     13706       118  SAPC      H5R             8.5327490063       22.3858295649      -17.3492040421  MEMB      118             0.0000000000
     13707       118  SAPC      C26             8.2862610009       22.6631009844      -15.3436850480  MEMB      118             0.0000000000
     13708       118  SAPC      H6R             9.2547320883       22.1652245722      -15.1881773542  MEMB      118             0.0000000000
     13709       118  SAPC      C27             7.4301628330       22.7986393840      -14.0846268374  MEMB      118             0.0000000000
     13710       118  SAPC      H7R             6.3585189659       22.6403789705      -14.3313132907  MEMB      118             0.0000000000
     13711       118  SAPC      H7S             7.4483413364       23.8401119859      -13.6982009088  MEMB      118             0.0000000000
     13712       118  SAPC      C28             7.8045460195       21.7222129459      -13.0182076679  MEMB      118             0.0000000000
     13713       118  SAPC      H8R             8.1409426284       20.7410177188      -13.3843956368  MEMB      118             0.0000000000
     13714       118  SAPC      C29             7.8435724138       21.9000105504      -11.6997852053  MEMB      118             0.0000000000
     13715       118  SAPC      H9R             8.3160366266       21.1417566365      -11.0580463666  MEMB      118             0.0000000000
     13716       118  SAPC      C210            7.5619254505       23.1240232578      -10.9343697692  MEMB      118             0.0000000000
     13717       118  SAPC      H10R            7.5645190910       24.0132303997      -11.6004216158  MEMB      118             0.0000000000
     13718       118  SAPC      H10S            8.3862104891       23.3061676548      -10.2120824281  MEMB      118             0.0000000000
     13719       118  SAPC      C211            6.2572847101       23.1178865435      -10.1455907537  MEMB      118             0.0000000000
     13720       118  SAPC      H11R            5.4259885553       23.4562855800      -10.7815414492  MEMB      118             0.0000000000
     13721       118  SAPC      C212            6.0403251792       22.6650290959       -8.9048204603  MEMB      118             0.0000000000
     13722       118  SAPC      H12R            5.1013216410       22.7051059220       -8.3332740705  MEMB      118             0.0000000000
     13723       118  SAPC      C213            7.1550930612       22.0674327665       -8.0553589323  MEMB      118             0.0000000000
     13724       118  SAPC      H13R            7.8027898364       21.4412245138       -8.7054921880  MEMB      118             0.0000000000
     13725       118  SAPC      H13S            6.7570281602       21.2655717069       -7.3974197605  MEMB      118             0.0000000000
     13726       118  SAPC      C214            7.9042566936       23.0987188835       -7.3076460894  MEMB      118             0.0000000000
     13727       118  SAPC      H14R            8.8681764325       23.4098300839       -7.7366784173  MEMB      118             0.0000000000
     13728       118  SAPC      C215            7.4369569209       23.8695552486       -6.3010921332  MEMB      118             0.0000000000
     13729       118  SAPC      H15R            8.0819863005       24.5764502075       -5.7586564794  MEMB      118             0.0000000000
     13730       118  SAPC      C216            6.0113116025       23.7602360929       -5.7688888838  MEMB      118             0.0000000000
     13731       118  SAPC      H16R            5.4768499471       22.8626804462       -6.1471294253  MEMB      118             0.0000000000
     13732       118  SAPC      H16S            5.4616027197       24.7052439791       -5.9666289229  MEMB      118             0.0000000000
     13733       118  SAPC      C217            5.9324695584       23.4025272004       -4.2615026690  MEMB      118             0.0000000000
     13734       118  SAPC      H17R            6.6252176965       23.9573650552       -3.5932392780  MEMB      118             0.0000000000
     13735       118  SAPC      H17S            6.0041547728       22.3299599677       -3.9808215527  MEMB      118             0.0000000000
     13736       118  SAPC      C218            4.5101166699       23.8115862906       -3.7606628659  MEMB      118             0.0000000000
     13737       118  SAPC      H18R            3.8407286497       23.3075013519       -4.4901419738  MEMB      118             0.0000000000
     13738       118  SAPC      H18S            4.5062992444       24.9222355090       -3.7330060569  MEMB      118             0.0000000000
     13739       118  SAPC      C219            4.2472843051       23.1858772593       -2.3272672125  MEMB      118             0.0000000000
     13740       118  SAPC      H19R            4.9961736513       23.5421371299       -1.5879674615  MEMB      118             0.0000000000
     13741       118  SAPC      H19S            4.1652561789       22.0789242974       -2.3746763827  MEMB      118             0.0000000000
     13742       118  SAPC      C220            2.9376522840       23.6394119071       -1.6723364073  MEMB      118             0.0000000000
     13743       118  SAPC      H20R            2.5294860102       23.0579475818       -0.8181592273  MEMB      118             0.0000000000
     13744       118  SAPC      H20S            2.1187518014       23.4978351419       -2.4096829169  MEMB      118             0.0000000000
     13745       118  SAPC      H20T            2.8767357176       24.7317814457       -1.4791036561  MEMB      118             0.0000000000
     13746       118  SAPC      C33             2.8885517654       19.3941640689      -15.1106246916  MEMB      118             0.0000000000
     13747       118  SAPC      H3X             2.4246174531       18.8146707473      -15.9372284297  MEMB      118             0.0000000000
     13748       118  SAPC      H3Y             2.0750765767       19.8812684708      -14.5315668767  MEMB      118             0.0000000000
     13749       118  SAPC      C34             3.5962745262       18.2599276767      -14.2566641425  MEMB      118             0.0000000000
     13750       118  SAPC      H4X             4.1936481210       17.6441615045      -14.9625664653  MEMB      118             0.0000000000
     13751       118  SAPC      H4Y             2.7762370288       17.6317289784      -13.8477312584  MEMB      118             0.0000000000
     13752       118  SAPC      C35             4.4729137507       18.7271002913      -13.1780514952  MEMB      118             0.0000000000
     13753       118  SAPC      H5X             3.8434761145       19.3933505835      -12.5501657170  MEMB      118             0.0000000000
     13754       118  SAPC      H5Y             5.3650029142       19.3389500511      -13.4313057282  MEMB      118             0.0000000000
     13755       118  SAPC      C36             5.0218908524       17.5165540870      -12.4227434803  MEMB      118             0.0000000000
     13756       118  SAPC      H6X             5.6314766545       16.8013500163      -13.0153729139  MEMB      118             0.0000000000
     13757       118  SAPC      H6Y             4.1429061815       16.9558435925      -12.0389324979  MEMB      118             0.0000000000
     13758       118  SAPC      C37             5.8457757413       17.8554966222      -11.0703482987  MEMB      118             0.0000000000
     13759       118  SAPC      H7X             6.5875927715       18.6341928425      -11.3490244515  MEMB      118             0.0000000000
     13760       118  SAPC      H7Y             6.3770063418       16.9524801342      -10.7006503601  MEMB      118             0.0000000000
     13761       118  SAPC      C38             4.7939327635       18.2345103037      -10.0073753854  MEMB      118             0.0000000000
     13762       118  SAPC      H8X             4.1495850953       17.3481655161       -9.8242630197  MEMB      118             0.0000000000
     13763       118  SAPC      H8Y             4.0947555116       19.0695155922      -10.2270076204  MEMB      118             0.0000000000
     13764       118  SAPC      C39             5.5201150698       18.5057724990       -8.6517286924  MEMB      118             0.0000000000
     13765       118  SAPC      H9X             5.8709780615       19.5598987600       -8.6575811949  MEMB      118             0.0000000000
     13766       118  SAPC      H9Y             6.3683178582       17.7894064971       -8.6105886180  MEMB      118             0.0000000000
     13767       118  SAPC      C310            4.6362304451       18.1357422228       -7.4673200640  MEMB      118             0.0000000000
     13768       118  SAPC      H10X            5.1252451664       18.4098016666       -6.5081134228  MEMB      118             0.0000000000
     13769       118  SAPC      H10Y            4.4344055643       17.0440571537       -7.4247553485  MEMB      118             0.0000000000
     13770       118  SAPC      C311            3.3230905296       18.8549615333       -7.4358129272  MEMB      118             0.0000000000
     13771       118  SAPC      H11X            2.9258216779       18.6121845570       -8.4445535848  MEMB      118             0.0000000000
     13772       118  SAPC      H11Y            3.5050712613       19.9500541992       -7.4802666704  MEMB      118             0.0000000000
     13773       118  SAPC      C312            2.2359076781       18.5447441674       -6.3698425040  MEMB      118             0.0000000000
     13774       118  SAPC      H12X            1.7244891838       17.6571636948       -6.7999281311  MEMB      118             0.0000000000
     13775       118  SAPC      H12Y            1.5950010594       19.4522264745       -6.3638933662  MEMB      118             0.0000000000
     13776       118  SAPC      C313            2.6754150824       18.4285014129       -4.9624549632  MEMB      118             0.0000000000
     13777       118  SAPC      H13X            3.0631197388       19.4416669334       -4.7226597105  MEMB      118             0.0000000000
     13778       118  SAPC      H13Y            3.4840238635       17.6972446835       -4.7485942113  MEMB      118             0.0000000000
     13779       118  SAPC      C314            1.4901538537       18.0228495530       -4.0613105436  MEMB      118             0.0000000000
     13780       118  SAPC      H14X            1.2628758294       16.9405929016       -4.1680158123  MEMB      118             0.0000000000
     13781       118  SAPC      H14Y            0.5866926282       18.6017585910       -4.3493090850  MEMB      118             0.0000000000
     13782       118  SAPC      C315            1.8519410279       18.3422950477       -2.6207873222  MEMB      118             0.0000000000
     13783       118  SAPC      H15X            0.9020021526       18.3358236734       -2.0446839738  MEMB      118             0.0000000000
     13784       118  SAPC      H15Y            2.1673728364       19.4053646859       -2.5521852579  MEMB      118             0.0000000000
     13785       118  SAPC      C316            2.8976753210       17.4554793711       -1.9056240584  MEMB      118             0.0000000000
     13786       118  SAPC      H16X            3.0134980912       16.5715575977       -2.5686393598  MEMB      118             0.0000000000
     13787       118  SAPC      H16Y            2.5589664462       17.0901666206       -0.9125762420  MEMB      118             0.0000000000
     13788       118  SAPC      C317            4.2340149887       18.2519662756       -1.4583314499  MEMB      118             0.0000000000
     13789       118  SAPC      H17X            4.8589786650       17.5843688989       -0.8274149767  MEMB      118             0.0000000000
     13790       118  SAPC      H17Y            3.8527392892       19.0743720049       -0.8159918710  MEMB      118             0.0000000000
     13791       118  SAPC      C318            5.1085666442       18.8626672974       -2.4738038370  MEMB      118             0.0000000000
     13792       118  SAPC      H18X            5.8366138074       19.5302539163       -1.9652796617  MEMB      118             0.0000000000
     13793       118  SAPC      H18Y            4.6505220586       19.4991789496       -3.2608030485  MEMB      118             0.0000000000
     13794       118  SAPC      H18Z            5.6607844283       18.0406545029       -2.9774635697  MEMB      118             0.0000000000
     13795       119  CHL1      C3            -19.5046484367        3.3414468358      -17.2909200000  MEMB      119             0.0000000000
     13796       119  CHL1      H3            -18.8354732585        2.5051025856      -16.9958800000  MEMB      119             0.0000000000
     13797       119  CHL1      O3            -19.6042047633        3.4326781442      -18.7090800000  MEMB      119             0.0000000000
     13798       119  CHL1      H3'           -18.8249758224        3.9370832585      -18.9539800000  MEMB      119             0.0000000000
     13799       119  CHL1      C4            -20.8624317412        2.8223729674      -16.8292400000  MEMB      119             0.0000000000
     13800       119  CHL1      H4A           -21.7453127831        3.3238495275      -17.2801900000  MEMB      119             0.0000000000
     13801       119  CHL1      H4B           -20.9868533063        1.8050159766      -17.2579900000  MEMB      119             0.0000000000
     13802       119  CHL1      C5            -20.9706932505        2.8352166779      -15.3585700000  MEMB      119             0.0000000000
     13803       119  CHL1      C6            -21.0096714408        1.6922111464      -14.7189600000  MEMB      119             0.0000000000
     13804       119  CHL1      H6            -21.1016509371        0.7963904398      -15.3506500000  MEMB      119             0.0000000000
     13805       119  CHL1      C7            -21.0137264352        1.4980657464      -13.2181800000  MEMB      119             0.0000000000
     13806       119  CHL1      H7A           -21.7285571273        0.7083274259      -12.9025200000  MEMB      119             0.0000000000
     13807       119  CHL1      H7B           -20.0181018217        1.1469826356      -12.8720400000  MEMB      119             0.0000000000
     13808       119  CHL1      C8            -21.3483524809        2.8492411767      -12.5197600000  MEMB      119             0.0000000000
     13809       119  CHL1      H8            -22.3958932807        3.0332177264      -12.8409000000  MEMB      119             0.0000000000
     13810       119  CHL1      C14           -21.1948550455        2.7220072853      -10.9713300000  MEMB      119             0.0000000000
     13811       119  CHL1      H14           -20.1478687114        2.3578096310      -10.8971200000  MEMB      119             0.0000000000
     13812       119  CHL1      C15           -22.0354720993        1.6214925522      -10.2980000000  MEMB      119             0.0000000000
     13813       119  CHL1      H15A          -23.1219576846        1.8349063143      -10.3892600000  MEMB      119             0.0000000000
     13814       119  CHL1      H15B          -21.5817519298        0.6532225831      -10.5995000000  MEMB      119             0.0000000000
     13815       119  CHL1      C16           -21.7080983498        2.0168067993       -8.8118200000  MEMB      119             0.0000000000
     13816       119  CHL1      H16A          -22.6665801843        2.0576002706       -8.2514900000  MEMB      119             0.0000000000
     13817       119  CHL1      H16B          -21.0528529097        1.3242853428       -8.2413900000  MEMB      119             0.0000000000
     13818       119  CHL1      C17           -21.0297354702        3.3771909847       -8.7295900000  MEMB      119             0.0000000000
     13819       119  CHL1      H17           -19.9193318749        3.3603761934       -8.7621200000  MEMB      119             0.0000000000
     13820       119  CHL1      C13           -21.4153826975        3.9440503996      -10.1474700000  MEMB      119             0.0000000000
     13821       119  CHL1      C18           -22.8979801472        4.3684605015      -10.1687800000  MEMB      119             0.0000000000
     13822       119  CHL1      H18A          -23.4600351206        3.6893984691       -9.4925600000  MEMB      119             0.0000000000
     13823       119  CHL1      H18B          -22.9329306507        5.4567642493       -9.9481200000  MEMB      119             0.0000000000
     13824       119  CHL1      H18C          -23.2907344619        4.2164361929      -11.1968700000  MEMB      119             0.0000000000
     13825       119  CHL1      C12           -20.5292071338        5.1076734418      -10.6641700000  MEMB      119             0.0000000000
     13826       119  CHL1      H12A          -20.8377181101        6.0682855625      -10.1990200000  MEMB      119             0.0000000000
     13827       119  CHL1      H12B          -19.4617068885        4.8142699387      -10.5710700000  MEMB      119             0.0000000000
     13828       119  CHL1      C11           -20.8065110148        5.2930350083      -12.1897300000  MEMB      119             0.0000000000
     13829       119  CHL1      H11A          -21.8718534405        5.6027490238      -12.2484100000  MEMB      119             0.0000000000
     13830       119  CHL1      H11B          -20.1510669335        6.0922252997      -12.5971800000  MEMB      119             0.0000000000
     13831       119  CHL1      C9            -20.5492358281        4.0218986879      -13.0769900000  MEMB      119             0.0000000000
     13832       119  CHL1      H9            -19.4795653671        3.7384901967      -12.9779900000  MEMB      119             0.0000000000
     13833       119  CHL1      C10           -20.7022209381        4.1775611340      -14.6708400000  MEMB      119             0.0000000000
     13834       119  CHL1      C19           -21.9482202090        5.0740068799      -15.0100100000  MEMB      119             0.0000000000
     13835       119  CHL1      H19A          -22.8015904535        4.5309562018      -14.5504800000  MEMB      119             0.0000000000
     13836       119  CHL1      H19B          -21.8294684467        6.0166029890      -14.4340500000  MEMB      119             0.0000000000
     13837       119  CHL1      H19C          -22.0947857175        5.2990775353      -16.0880600000  MEMB      119             0.0000000000
     13838       119  CHL1      C1            -19.4070455889        4.8919735663      -15.2117200000  MEMB      119             0.0000000000
     13839       119  CHL1      H1A           -19.3437705085        5.9118356333      -14.7756000000  MEMB      119             0.0000000000
     13840       119  CHL1      H1B           -18.6937042534        4.2693314130      -14.6305400000  MEMB      119             0.0000000000
     13841       119  CHL1      C2            -19.1929404132        4.7730798073      -16.7142000000  MEMB      119             0.0000000000
     13842       119  CHL1      H2A           -18.1253900727        4.9930498573      -16.9293200000  MEMB      119             0.0000000000
     13843       119  CHL1      H2B           -19.9419623957        5.4118351084      -17.2292500000  MEMB      119             0.0000000000
     13844       119  CHL1      C20           -21.6099497929        4.1349854482       -7.4851300000  MEMB      119             0.0000000000
     13845       119  CHL1      H20           -22.7170067120        4.0416756476       -7.4780200000  MEMB      119             0.0000000000
     13846       119  CHL1      C21           -21.3337331224        5.6298839266       -7.5238200000  MEMB      119             0.0000000000
     13847       119  CHL1      H21A          -20.2359622025        5.7152422732       -7.6719100000  MEMB      119             0.0000000000
     13848       119  CHL1      H21B          -21.5424573130        6.1435803162       -6.5610800000  MEMB      119             0.0000000000
     13849       119  CHL1      H21C          -21.8685427637        6.2161602097       -8.3013800000  MEMB      119             0.0000000000
     13850       119  CHL1      C22           -21.0620085012        3.4142700943       -6.1896000000  MEMB      119             0.0000000000
     13851       119  CHL1      H22A          -21.5925256887        2.4414585873       -6.1089900000  MEMB      119             0.0000000000
     13852       119  CHL1      H22B          -19.9871828944        3.2744186827       -6.4335800000  MEMB      119             0.0000000000
     13853       119  CHL1      C23           -21.3336878235        4.1165040501       -4.8488000000  MEMB      119             0.0000000000
     13854       119  CHL1      H23A          -20.7165775190        5.0372618572       -4.7734100000  MEMB      119             0.0000000000
     13855       119  CHL1      H23B          -22.4171044021        4.3335952158       -4.9646600000  MEMB      119             0.0000000000
     13856       119  CHL1      C24           -21.1188304363        3.3152289680       -3.6439600000  MEMB      119             0.0000000000
     13857       119  CHL1      H24A          -21.7083111475        2.3743675451       -3.6038900000  MEMB      119             0.0000000000
     13858       119  CHL1      H24B          -20.0508104570        3.0115255438       -3.6061200000  MEMB      119             0.0000000000
     13859       119  CHL1      C25           -21.5483595789        4.1316355616       -2.3932300000  MEMB      119             0.0000000000
     13860       119  CHL1      H25           -22.6125344658        4.4477069471       -2.4374300000  MEMB      119             0.0000000000
     13861       119  CHL1      C26           -21.5541273721        3.2774198878       -1.1576500000  MEMB      119             0.0000000000
     13862       119  CHL1      H26A          -21.5898844698        3.9005718227       -0.2385600000  MEMB      119             0.0000000000
     13863       119  CHL1      H26B          -22.5623266781        2.8122887343       -1.1187000000  MEMB      119             0.0000000000
     13864       119  CHL1      H26C          -20.7410443803        2.5300404827       -1.2785900000  MEMB      119             0.0000000000
     13865       119  CHL1      C27           -20.6721259138        5.3206182499       -2.1535700000  MEMB      119             0.0000000000
     13866       119  CHL1      H27A          -20.7657311497        5.6480238687       -1.0960400000  MEMB      119             0.0000000000
     13867       119  CHL1      H27B          -19.6008788844        5.0563108172       -2.2835800000  MEMB      119             0.0000000000
     13868       119  CHL1      H27C          -20.7929803616        6.1619852437       -2.8689900000  MEMB      119             0.0000000000
     13869       120  SAPE      N              11.5365132204      -14.6604976842      -22.6131937422  MEMB      120             0.0000000000
     13870       120  SAPE      HN1            11.8957532161      -15.0936977920      -23.4877703735  MEMB      120             0.0000000000
     13871       120  SAPE      HN2            10.8452860561      -13.9078744730      -22.8064898513  MEMB      120             0.0000000000
     13872       120  SAPE      HN3            12.2672587091      -14.1299993016      -22.0972650831  MEMB      120             0.0000000000
     13873       120  SAPE      C12            11.0100316585      -15.6353670269      -21.5790303525  MEMB      120             0.0000000000
     13874       120  SAPE      H12A           10.1735518550      -16.1521876536      -22.0962528174  MEMB      120             0.0000000000
     13875       120  SAPE      H12B           10.6035277147      -15.1078110417      -20.6897834498  MEMB      120             0.0000000000
     13876       120  SAPE      C11            12.1585464456      -16.6456118392      -21.1916229706  MEMB      120             0.0000000000
     13877       120  SAPE      H11A           12.6283560949      -16.8222379492      -22.1827855034  MEMB      120             0.0000000000
     13878       120  SAPE      H11B           11.6312624408      -17.5106464933      -20.7355445430  MEMB      120             0.0000000000
     13879       120  SAPE      P              13.0770274561      -15.8047243975      -18.8528408107  MEMB      120             0.0000000000
     13880       120  SAPE      O13            12.5291723656      -14.4905255915      -18.4496064386  MEMB      120             0.0000000000
     13881       120  SAPE      O14            12.3990054797      -17.0032056459      -18.4019398914  MEMB      120             0.0000000000
     13882       120  SAPE      O12            13.1057705034      -15.8343933368      -20.4506000875  MEMB      120             0.0000000000
     13883       120  SAPE      O11            14.6206952803      -15.9441152463      -18.4611656676  MEMB      120             0.0000000000
     13884       120  SAPE      C1             15.5298938267      -16.6995115407      -19.2139655818  MEMB      120             0.0000000000
     13885       120  SAPE      HA             15.0917782576      -17.5095460984      -19.8354314260  MEMB      120             0.0000000000
     13886       120  SAPE      HB             16.0774897849      -15.9990935367      -19.8802045622  MEMB      120             0.0000000000
     13887       120  SAPE      C2             16.5655581150      -17.2200673480      -18.2511709382  MEMB      120             0.0000000000
     13888       120  SAPE      HS             17.3191325382      -17.8395657655      -18.7828364297  MEMB      120             0.0000000000
     13889       120  SAPE      O21            15.9115326948      -17.9870740736      -17.1375234077  MEMB      120             0.0000000000
     13890       120  SAPE      C21            15.2393207700      -19.1183846179      -17.4816568443  MEMB      120             0.0000000000
     13891       120  SAPE      O22            14.8799279094      -19.4228137152      -18.6316037162  MEMB      120             0.0000000000
     13892       120  SAPE      C22            14.7935990793      -19.8943089930      -16.2472759912  MEMB      120             0.0000000000
     13893       120  SAPE      H2R            14.6532952631      -20.9362876896      -16.6063259075  MEMB      120             0.0000000000
     13894       120  SAPE      H2S            15.5475433741      -19.8317167436      -15.4336597308  MEMB      120             0.0000000000
     13895       120  SAPE      C3             17.3230981424      -16.0907905887      -17.4812301499  MEMB      120             0.0000000000
     13896       120  SAPE      HX             16.5637568729      -15.2891425443      -17.3584193697  MEMB      120             0.0000000000
     13897       120  SAPE      HY             18.2033673014      -15.7364041165      -18.0590335809  MEMB      120             0.0000000000
     13898       120  SAPE      O31            17.9614228028      -16.5618908410      -16.2151848035  MEMB      120             0.0000000000
     13899       120  SAPE      C31            17.2586533504      -16.3627365686      -15.1170539033  MEMB      120             0.0000000000
     13900       120  SAPE      O32            16.3215629568      -15.6331981156      -14.9529710988  MEMB      120             0.0000000000
     13901       120  SAPE      C32            17.7528440402      -17.2658914085      -14.0511358891  MEMB      120             0.0000000000
     13902       120  SAPE      H2X            18.8565342859      -17.1485459030      -14.1003223636  MEMB      120             0.0000000000
     13903       120  SAPE      H2Y            17.3880239644      -18.2970737446      -14.2457894138  MEMB      120             0.0000000000
     13904       120  SAPE      C23            13.4235431316      -19.3796918345      -15.8148927382  MEMB      120             0.0000000000
     13905       120  SAPE      H3R            12.5983074235      -19.7942158067      -16.4325307480  MEMB      120             0.0000000000
     13906       120  SAPE      H3S            13.3460953345      -18.2846677110      -15.9859029895  MEMB      120             0.0000000000
     13907       120  SAPE      C24            13.2840085473      -19.7255043781      -14.3378051496  MEMB      120             0.0000000000
     13908       120  SAPE      H4R            14.0340499647      -19.1575562885      -13.7468787283  MEMB      120             0.0000000000
     13909       120  SAPE      H4S            13.3795381405      -20.8283037448      -14.2427853423  MEMB      120             0.0000000000
     13910       120  SAPE      C25            11.8473860163      -19.5498908295      -13.8304981021  MEMB      120             0.0000000000
     13911       120  SAPE      H5R            11.3966083792      -20.5227283536      -13.5847610897  MEMB      120             0.0000000000
     13912       120  SAPE      C26            11.2097679651      -18.3496094918      -13.7612029620  MEMB      120             0.0000000000
     13913       120  SAPE      H6R            10.2156871186      -18.2741771998      -13.2963228381  MEMB      120             0.0000000000
     13914       120  SAPE      C27            11.8036829815      -16.9768476803      -14.1559448074  MEMB      120             0.0000000000
     13915       120  SAPE      H7R            11.7093106745      -16.8194365675      -15.2516808773  MEMB      120             0.0000000000
     13916       120  SAPE      H7S            12.8359270254      -16.9344170471      -13.7472976486  MEMB      120             0.0000000000
     13917       120  SAPE      C28            11.2418647639      -15.7343726370      -13.5102196686  MEMB      120             0.0000000000
     13918       120  SAPE      H8R            10.8908664035      -15.0847246808      -14.3255461008  MEMB      120             0.0000000000
     13919       120  SAPE      C29            11.2148323312      -15.4311431589      -12.2307463318  MEMB      120             0.0000000000
     13920       120  SAPE      H9R            10.7984321454      -14.4212596027      -12.1013401284  MEMB      120             0.0000000000
     13921       120  SAPE      C210           11.6892953527      -16.0608018843      -11.0178943201  MEMB      120             0.0000000000
     13922       120  SAPE      H10R           11.7490873001      -17.1424618935      -11.2643852531  MEMB      120             0.0000000000
     13923       120  SAPE      H10S           11.0362016238      -15.9674138590      -10.1239884258  MEMB      120             0.0000000000
     13924       120  SAPE      C211           13.0755482048      -15.5528571341      -10.7455136616  MEMB      120             0.0000000000
     13925       120  SAPE      H11R           13.9139280261      -15.7529859337      -11.4289372844  MEMB      120             0.0000000000
     13926       120  SAPE      C212           13.4417170205      -14.9350033107       -9.6283221323  MEMB      120             0.0000000000
     13927       120  SAPE      H12R           14.5236339239      -14.8037445960       -9.4792361551  MEMB      120             0.0000000000
     13928       120  SAPE      C213           12.6196907936      -14.5844922205       -8.3902763401  MEMB      120             0.0000000000
     13929       120  SAPE      H13R           12.6904764319      -15.2986832696       -7.5421947990  MEMB      120             0.0000000000
     13930       120  SAPE      H13S           11.5172131757      -14.6133010000       -8.5245659798  MEMB      120             0.0000000000
     13931       120  SAPE      C214           13.0440216354      -13.1325044267       -8.0158129794  MEMB      120             0.0000000000
     13932       120  SAPE      H14R           12.9198427408      -12.4023592367       -8.8291194451  MEMB      120             0.0000000000
     13933       120  SAPE      C215           13.5669011281      -12.6708425072       -6.8764204789  MEMB      120             0.0000000000
     13934       120  SAPE      H15R           13.8500851622      -11.6248734717       -6.6873284922  MEMB      120             0.0000000000
     13935       120  SAPE      C216           13.8308920987      -13.4613234171       -5.6187570084  MEMB      120             0.0000000000
     13936       120  SAPE      H16R           13.7511339278      -14.5608849319       -5.7563215420  MEMB      120             0.0000000000
     13937       120  SAPE      H16S           13.0054257462      -13.2147706135       -4.9172317462  MEMB      120             0.0000000000
     13938       120  SAPE      C217           15.1648882599      -13.2561995763       -4.8380295849  MEMB      120             0.0000000000
     13939       120  SAPE      H17R           15.0797556895      -12.1999129658       -4.5043650137  MEMB      120             0.0000000000
     13940       120  SAPE      H17S           15.9850555614      -13.3285502208       -5.5839598401  MEMB      120             0.0000000000
     13941       120  SAPE      C218           15.3936862982      -14.2818048687       -3.7269710553  MEMB      120             0.0000000000
     13942       120  SAPE      H18R           15.6266864990      -15.2940408978       -4.1211925187  MEMB      120             0.0000000000
     13943       120  SAPE      H18S           14.4425796951      -14.3621321029       -3.1584080799  MEMB      120             0.0000000000
     13944       120  SAPE      C219           16.6709305128      -13.9795102602       -2.9830139186  MEMB      120             0.0000000000
     13945       120  SAPE      H19R           16.9106057087      -12.8993887354       -2.8819477802  MEMB      120             0.0000000000
     13946       120  SAPE      H19S           17.4481976290      -14.3758713106       -3.6708187190  MEMB      120             0.0000000000
     13947       120  SAPE      C220           16.5569432425      -14.6471448117       -1.6770869285  MEMB      120             0.0000000000
     13948       120  SAPE      H20R           15.8765001241      -14.0171086192       -1.0652261017  MEMB      120             0.0000000000
     13949       120  SAPE      H20S           17.5214153432      -14.7665243266       -1.1386983214  MEMB      120             0.0000000000
     13950       120  SAPE      H20T           16.0665691344      -15.6374021817       -1.7921717847  MEMB      120             0.0000000000
     13951       120  SAPE      C33            17.3194316989      -16.8256718279      -12.6275573288  MEMB      120             0.0000000000
     13952       120  SAPE      H3X            16.2291807772      -16.7684276416      -12.4216516268  MEMB      120             0.0000000000
     13953       120  SAPE      H3Y            17.7142666100      -15.7909585119      -12.5392698126  MEMB      120             0.0000000000
     13954       120  SAPE      C34            18.1306188556      -17.6390289008      -11.6494869098  MEMB      120             0.0000000000
     13955       120  SAPE      H4X            19.1542920857      -17.2098493641      -11.6023774897  MEMB      120             0.0000000000
     13956       120  SAPE      H4Y            18.2682214729      -18.6918500732      -11.9765245910  MEMB      120             0.0000000000
     13957       120  SAPE      C35            17.5778794565      -17.6704486961      -10.2229711554  MEMB      120             0.0000000000
     13958       120  SAPE      H5X            17.3805812648      -16.7100454271       -9.7004585918  MEMB      120             0.0000000000
     13959       120  SAPE      H5Y            18.3039781343      -18.2369691709       -9.6015570258  MEMB      120             0.0000000000
     13960       120  SAPE      C36            16.3185134600      -18.5509723770      -10.1558872979  MEMB      120             0.0000000000
     13961       120  SAPE      H6X            15.4465615271      -18.1269511929      -10.6983137907  MEMB      120             0.0000000000
     13962       120  SAPE      H6Y            16.0045570614      -18.4367496679       -9.0963097346  MEMB      120             0.0000000000
     13963       120  SAPE      C37            16.4163817068      -20.0852525670      -10.4022113910  MEMB      120             0.0000000000
     13964       120  SAPE      H7X            17.0193331699      -20.5852031344       -9.6142905105  MEMB      120             0.0000000000
     13965       120  SAPE      H7Y            16.9349746645      -20.1485414039      -11.3827100893  MEMB      120             0.0000000000
     13966       120  SAPE      C38            15.0544841368      -20.7685496812      -10.7053867581  MEMB      120             0.0000000000
     13967       120  SAPE      H8X            15.3308943534      -21.8056105513      -10.9924804794  MEMB      120             0.0000000000
     13968       120  SAPE      H8Y            14.5492514631      -20.2864720648      -11.5694826644  MEMB      120             0.0000000000
     13969       120  SAPE      C39            14.1043674447      -20.7347376890       -9.5520310812  MEMB      120             0.0000000000
     13970       120  SAPE      H9X            14.4774602226      -21.1149845317       -8.5770767329  MEMB      120             0.0000000000
     13971       120  SAPE      H9Y            13.3258304435      -21.4879096271       -9.7988772584  MEMB      120             0.0000000000
     13972       120  SAPE      C310           13.3880859465      -19.3554070892       -9.5465620399  MEMB      120             0.0000000000
     13973       120  SAPE      H10X           13.2102087683      -18.9232228703      -10.5544792685  MEMB      120             0.0000000000
     13974       120  SAPE      H10Y           14.0291448195      -18.5622054942       -9.1058847991  MEMB      120             0.0000000000
     13975       120  SAPE      C311           12.0789829252      -19.4007435850       -8.7535165824  MEMB      120             0.0000000000
     13976       120  SAPE      H11X           11.4309541665      -20.1721916203       -9.2217550528  MEMB      120             0.0000000000
     13977       120  SAPE      H11Y           11.6296522037      -18.4298451406       -9.0531471569  MEMB      120             0.0000000000
     13978       120  SAPE      C312           12.0744222302      -19.5488077911       -7.2478461865  MEMB      120             0.0000000000
     13979       120  SAPE      H12X           12.2348855244      -20.6374375995       -7.0946855580  MEMB      120             0.0000000000
     13980       120  SAPE      H12Y           11.0363965884      -19.3368455175       -6.9133377761  MEMB      120             0.0000000000
     13981       120  SAPE      C313           13.0618577429      -18.6287956017       -6.5376957636  MEMB      120             0.0000000000
     13982       120  SAPE      H13X           12.7474667505      -17.5645553074       -6.5912873256  MEMB      120             0.0000000000
     13983       120  SAPE      H13Y           14.0564156790      -18.7093171323       -7.0262572509  MEMB      120             0.0000000000
     13984       120  SAPE      C314           13.1511147057      -18.9412205895       -5.0024141295  MEMB      120             0.0000000000
     13985       120  SAPE      H14X           13.1753182129      -20.0249342459       -4.7588984771  MEMB      120             0.0000000000
     13986       120  SAPE      H14Y           12.1840213142      -18.5482540647       -4.6221130808  MEMB      120             0.0000000000
     13987       120  SAPE      C315           14.2176891492      -18.1414302588       -4.2141110347  MEMB      120             0.0000000000
     13988       120  SAPE      H15X           13.7275554095      -17.7085425805       -3.3159472334  MEMB      120             0.0000000000
     13989       120  SAPE      H15Y           14.3986567982      -17.2830659191       -4.8958604702  MEMB      120             0.0000000000
     13990       120  SAPE      C316           15.5230309242      -18.8728626343       -4.0399111021  MEMB      120             0.0000000000
     13991       120  SAPE      H16X           15.7666585896      -19.1463382367       -5.0888036188  MEMB      120             0.0000000000
     13992       120  SAPE      H16Y           15.4085106921      -19.7739472595       -3.4001825946  MEMB      120             0.0000000000
     13993       120  SAPE      C317           16.6995389998      -18.0768925402       -3.5877143360  MEMB      120             0.0000000000
     13994       120  SAPE      H17X           16.3665125583      -17.3757980055       -2.7928053635  MEMB      120             0.0000000000
     13995       120  SAPE      H17Y           17.1027234216      -17.4203313272       -4.3881457731  MEMB      120             0.0000000000
     13996       120  SAPE      C318           17.8544266689      -18.9259522780       -3.1222626218  MEMB      120             0.0000000000
     13997       120  SAPE      H18X           17.4658379791      -19.9259455541       -2.8335875934  MEMB      120             0.0000000000
     13998       120  SAPE      H18Y           18.4500107654      -18.5085392746       -2.2824014997  MEMB      120             0.0000000000
     13999       120  SAPE      H18Z           18.5029663528      -19.1617432221       -3.9929642394  MEMB      120             0.0000000000
     14000       121  SLPC      N              -2.0543095625      -22.6392094866      -18.6670341990  MEMB      121             0.0000000000
     14001       121  SLPC      C13            -3.1386073131      -23.6125672880      -18.4812585381  MEMB      121             0.0000000000
     14002       121  SLPC      H13A           -3.5622627027      -23.4002455644      -17.5107763414  MEMB      121             0.0000000000
     14003       121  SLPC      H13B           -3.8454781264      -23.6074292256      -19.2977799667  MEMB      121             0.0000000000
     14004       121  SLPC      H13C           -2.8429658055      -24.6512992629      -18.4869200013  MEMB      121             0.0000000000
     14005       121  SLPC      C14            -1.6725242823      -22.6406285209      -20.1557207816  MEMB      121             0.0000000000
     14006       121  SLPC      H14A           -1.1118837571      -23.5567504186      -20.2688704423  MEMB      121             0.0000000000
     14007       121  SLPC      H14B           -2.6313768956      -22.5705284935      -20.6477446467  MEMB      121             0.0000000000
     14008       121  SLPC      H14C           -1.0405751068      -21.7900995459      -20.3646244074  MEMB      121             0.0000000000
     14009       121  SLPC      C15            -0.7818248900      -22.9975989412      -17.8626020201  MEMB      121             0.0000000000
     14010       121  SLPC      H15A           -1.0184548919      -23.0569530471      -16.8105167951  MEMB      121             0.0000000000
     14011       121  SLPC      H15B           -0.2476505068      -23.8552432199      -18.2440520212  MEMB      121             0.0000000000
     14012       121  SLPC      H15C           -0.1110659799      -22.1576557391      -17.9673769573  MEMB      121             0.0000000000
     14013       121  SLPC      C12            -2.6015798372      -21.2203399630      -18.3676911632  MEMB      121             0.0000000000
     14014       121  SLPC      H12A           -3.3007971547      -20.9096836818      -19.1299166269  MEMB      121             0.0000000000
     14015       121  SLPC      H12B           -1.7310975551      -20.5877763950      -18.4600165775  MEMB      121             0.0000000000
     14016       121  SLPC      C11            -3.2665912765      -20.9061640093      -17.0289893376  MEMB      121             0.0000000000
     14017       121  SLPC      H11A           -4.2831898331      -21.3542487277      -17.0207337360  MEMB      121             0.0000000000
     14018       121  SLPC      H11B           -3.4729234111      -19.8172607287      -16.9512856482  MEMB      121             0.0000000000
     14019       121  SLPC      P              -1.4585334807      -20.5278712979      -15.3073269614  MEMB      121             0.0000000000
     14020       121  SLPC      O13            -0.4720743664      -20.0903711469      -16.3508217732  MEMB      121             0.0000000000
     14021       121  SLPC      O14            -2.0179434445      -19.4300626748      -14.4447734782  MEMB      121             0.0000000000
     14022       121  SLPC      O12            -2.6393250261      -21.4726517426      -15.8851843735  MEMB      121             0.0000000000
     14023       121  SLPC      O11            -0.8089963115      -21.6376614152      -14.4485973740  MEMB      121             0.0000000000
     14024       121  SLPC      C1              0.6380728003      -21.7620968395      -14.5075746320  MEMB      121             0.0000000000
     14025       121  SLPC      HA              1.0439416459      -21.6841607499      -15.5388445316  MEMB      121             0.0000000000
     14026       121  SLPC      HB              1.1181856723      -21.0128430970      -13.8424194907  MEMB      121             0.0000000000
     14027       121  SLPC      C2              0.9856396490      -23.1947613228      -14.0511668213  MEMB      121             0.0000000000
     14028       121  SLPC      HS              0.4210481797      -23.9724350966      -14.6086440104  MEMB      121             0.0000000000
     14029       121  SLPC      O21             0.6590892596      -23.2577505544      -12.6115732309  MEMB      121             0.0000000000
     14030       121  SLPC      C21             0.3195676212      -24.4019233270      -12.1351283175  MEMB      121             0.0000000000
     14031       121  SLPC      O22             0.1386034775      -25.4065732403      -12.7774305349  MEMB      121             0.0000000000
     14032       121  SLPC      C22             0.1783823031      -24.3004534971      -10.5587047717  MEMB      121             0.0000000000
     14033       121  SLPC      H2R             1.2029275904      -24.3138907781      -10.1292311651  MEMB      121             0.0000000000
     14034       121  SLPC      H2S            -0.2928854877      -23.3693075389      -10.1776602646  MEMB      121             0.0000000000
     14035       121  SLPC      C3              2.4886563715      -23.5257491433      -14.1998021696  MEMB      121             0.0000000000
     14036       121  SLPC      HX              2.8377755954      -23.4349695149      -15.2506094497  MEMB      121             0.0000000000
     14037       121  SLPC      HY              2.6348347091      -24.5719707390      -13.8557479177  MEMB      121             0.0000000000
     14038       121  SLPC      O31             3.2627041007      -22.5800006427      -13.3861197842  MEMB      121             0.0000000000
     14039       121  SLPC      C31             3.8568106275      -23.0482965696      -12.2611948527  MEMB      121             0.0000000000
     14040       121  SLPC      O32             4.1047905948      -24.2271526894      -12.0341699514  MEMB      121             0.0000000000
     14041       121  SLPC      C32             4.2288442351      -21.8260054326      -11.4504979526  MEMB      121             0.0000000000
     14042       121  SLPC      H2X             3.4886944033      -21.0322502891      -11.6880932671  MEMB      121             0.0000000000
     14043       121  SLPC      H2Y             5.2178995054      -21.4153870001      -11.7462732468  MEMB      121             0.0000000000
     14044       121  SLPC      C23            -0.4632708247      -25.6056724243       -9.9186745053  MEMB      121             0.0000000000
     14045       121  SLPC      H3R            -1.2177771323      -25.9771890553      -10.6446333880  MEMB      121             0.0000000000
     14046       121  SLPC      H3S            -0.9592878842      -25.2972696358       -8.9735944899  MEMB      121             0.0000000000
     14047       121  SLPC      C24             0.6258914061      -26.6776465691       -9.7860681685  MEMB      121             0.0000000000
     14048       121  SLPC      H4R             1.1484054038      -26.9621401534      -10.7243451131  MEMB      121             0.0000000000
     14049       121  SLPC      H4S             0.0382474893      -27.5641904077       -9.4650774762  MEMB      121             0.0000000000
     14050       121  SLPC      C25             1.7333714642      -26.5107061077       -8.7142477106  MEMB      121             0.0000000000
     14051       121  SLPC      H5R             2.3902355164      -25.6285959204       -8.8715133583  MEMB      121             0.0000000000
     14052       121  SLPC      H5S             2.4354307010      -27.3688455688       -8.7851698912  MEMB      121             0.0000000000
     14053       121  SLPC      C26             1.1937064810      -26.4239249107       -7.2267866570  MEMB      121             0.0000000000
     14054       121  SLPC      H6R             0.5726705510      -27.3138006037       -6.9885499403  MEMB      121             0.0000000000
     14055       121  SLPC      H6S             0.5611070445      -25.5151582229       -7.1357812370  MEMB      121             0.0000000000
     14056       121  SLPC      C27             2.3314002703      -26.4423147659       -6.1251548052  MEMB      121             0.0000000000
     14057       121  SLPC      H7R             2.9236613709      -27.3814406436       -6.1650292369  MEMB      121             0.0000000000
     14058       121  SLPC      H7S             1.9251403022      -26.3116957801       -5.0993805243  MEMB      121             0.0000000000
     14059       121  SLPC      C28             3.3778373879      -25.2242363810       -6.2856239879  MEMB      121             0.0000000000
     14060       121  SLPC      H8R             3.9196899499      -25.4179964093       -7.2359790522  MEMB      121             0.0000000000
     14061       121  SLPC      H8S             4.0838270689      -25.3408761289       -5.4357457080  MEMB      121             0.0000000000
     14062       121  SLPC      C29             2.7161568464      -23.8995009015       -6.3525959434  MEMB      121             0.0000000000
     14063       121  SLPC      H9R             2.5856434773      -23.4624105972       -7.3535554482  MEMB      121             0.0000000000
     14064       121  SLPC      C210            2.5033576516      -23.0272298013       -5.3059280836  MEMB      121             0.0000000000
     14065       121  SLPC      H10R            2.0265922709      -22.0577258353       -5.5127045883  MEMB      121             0.0000000000
     14066       121  SLPC      C211            2.8276848144      -23.0687022868       -3.8503433776  MEMB      121             0.0000000000
     14067       121  SLPC      H11R            3.6829876915      -22.3965085501       -3.6246590414  MEMB      121             0.0000000000
     14068       121  SLPC      H11S            3.1064546398      -24.0939104720       -3.5254482327  MEMB      121             0.0000000000
     14069       121  SLPC      C212            1.6011744630      -22.6136543648       -3.0031006254  MEMB      121             0.0000000000
     14070       121  SLPC      H12R            0.6934826323      -22.7432620938       -3.6107998397  MEMB      121             0.0000000000
     14071       121  SLPC      C213            1.6163196690      -22.1942000601       -1.7478185745  MEMB      121             0.0000000000
     14072       121  SLPC      H13R            0.6816103628      -21.8619344175       -1.2725099765  MEMB      121             0.0000000000
     14073       121  SLPC      C214            2.8722502808      -22.0554587321       -0.8918687542  MEMB      121             0.0000000000
     14074       121  SLPC      H14R            3.1871029108      -20.9910468740       -0.8447930548  MEMB      121             0.0000000000
     14075       121  SLPC      H14S            3.6919187729      -22.5195322809       -1.4810213321  MEMB      121             0.0000000000
     14076       121  SLPC      C215            2.8447332810      -22.7365743215        0.5007975223  MEMB      121             0.0000000000
     14077       121  SLPC      H15R            2.1231502841      -22.1980197053        1.1516415070  MEMB      121             0.0000000000
     14078       121  SLPC      H15S            3.8596413351      -22.5210474980        0.8980779644  MEMB      121             0.0000000000
     14079       121  SLPC      C216            2.5724464210      -24.1787201323        0.4363783393  MEMB      121             0.0000000000
     14080       121  SLPC      H16R            3.2111546552      -24.5556826570       -0.3908287388  MEMB      121             0.0000000000
     14081       121  SLPC      H16S            1.5592168917      -24.3980340652        0.0368922265  MEMB      121             0.0000000000
     14082       121  SLPC      C217            2.7397339476      -24.9503621303        1.7510170135  MEMB      121             0.0000000000
     14083       121  SLPC      H17R            3.5548981127      -24.7241574349        2.4711977563  MEMB      121             0.0000000000
     14084       121  SLPC      H17S            2.9212936730      -25.9839105584        1.3861408751  MEMB      121             0.0000000000
     14085       121  SLPC      C218            1.4296049315      -24.9345061664        2.4871153202  MEMB      121             0.0000000000
     14086       121  SLPC      H18R            1.5195940408      -25.8419431444        3.1217659794  MEMB      121             0.0000000000
     14087       121  SLPC      H18S            0.6283008970      -25.0266583786        1.7230853183  MEMB      121             0.0000000000
     14088       121  SLPC      H18T            1.3099756056      -23.9870479829        3.0548588652  MEMB      121             0.0000000000
     14089       121  SLPC      C33             4.1245993607      -22.1899635334       -9.9714046621  MEMB      121             0.0000000000
     14090       121  SLPC      H3X             4.8345285659      -22.9327790847       -9.5488567867  MEMB      121             0.0000000000
     14091       121  SLPC      H3Y             3.1159251660      -22.6118932372       -9.7742434267  MEMB      121             0.0000000000
     14092       121  SLPC      C34             4.3034114964      -20.9874412909       -9.0926070907  MEMB      121             0.0000000000
     14093       121  SLPC      H4X             5.3728682143      -20.6968857239       -9.1710983925  MEMB      121             0.0000000000
     14094       121  SLPC      H4Y             4.2147512576      -21.2646788277       -8.0204139622  MEMB      121             0.0000000000
     14095       121  SLPC      C35             3.3367465361      -19.8151740861       -9.3651357474  MEMB      121             0.0000000000
     14096       121  SLPC      H5X             3.6468951869      -19.3158381576      -10.3078938061  MEMB      121             0.0000000000
     14097       121  SLPC      H5Y             3.5356078403      -18.9890540615       -8.6493842267  MEMB      121             0.0000000000
     14098       121  SLPC      C36             1.9257684235      -20.1448246201       -9.2534056591  MEMB      121             0.0000000000
     14099       121  SLPC      H6X             1.7164179662      -20.8748054445       -8.4424669393  MEMB      121             0.0000000000
     14100       121  SLPC      H6Y             1.6667442242      -20.6769143790      -10.1936754770  MEMB      121             0.0000000000
     14101       121  SLPC      C37             1.0567805346      -18.9072800109       -9.2489269970  MEMB      121             0.0000000000
     14102       121  SLPC      H7X             1.4553908755      -18.2064948317      -10.0133422368  MEMB      121             0.0000000000
     14103       121  SLPC      H7Y             1.1324569014      -18.4179144510       -8.2543844603  MEMB      121             0.0000000000
     14104       121  SLPC      C38            -0.4764875804      -19.1721519831       -9.4087500210  MEMB      121             0.0000000000
     14105       121  SLPC      H8X            -0.5994063931      -20.0176389178      -10.1189359708  MEMB      121             0.0000000000
     14106       121  SLPC      H8Y            -0.9133913919      -18.3065082366       -9.9510569096  MEMB      121             0.0000000000
     14107       121  SLPC      C39            -1.2784405654      -19.3325795352       -8.1105427370  MEMB      121             0.0000000000
     14108       121  SLPC      H9X            -2.3429283143      -19.5125792670       -8.3728146562  MEMB      121             0.0000000000
     14109       121  SLPC      H9Y            -1.1300258927      -18.4028814861       -7.5206651516  MEMB      121             0.0000000000
     14110       121  SLPC      C310           -0.7536435418      -20.5423980831       -7.3002683797  MEMB      121             0.0000000000
     14111       121  SLPC      H10X            0.1762225393      -20.1984158839       -6.7989243095  MEMB      121             0.0000000000
     14112       121  SLPC      H10Y           -0.4744785770      -21.3514352531       -8.0086797560  MEMB      121             0.0000000000
     14113       121  SLPC      C311           -1.8292156582      -21.0651033826       -6.3163364652  MEMB      121             0.0000000000
     14114       121  SLPC      H11X           -2.6776046527      -21.4796286591       -6.9017633901  MEMB      121             0.0000000000
     14115       121  SLPC      H11Y           -2.2941898043      -20.2046264099       -5.7893640784  MEMB      121             0.0000000000
     14116       121  SLPC      C312           -1.2080745904      -22.0546725321       -5.3962447422  MEMB      121             0.0000000000
     14117       121  SLPC      H12X           -1.8713117513      -21.9689741872       -4.5090621198  MEMB      121             0.0000000000
     14118       121  SLPC      H12Y           -0.1927793545      -21.8689043312       -4.9851652318  MEMB      121             0.0000000000
     14119       121  SLPC      C313           -1.5036270948      -23.4950420469       -5.7271672654  MEMB      121             0.0000000000
     14120       121  SLPC      H13X           -1.0192061093      -23.7596056170       -6.6913581343  MEMB      121             0.0000000000
     14121       121  SLPC      H13Y           -2.6087714814      -23.6026761701       -5.7644781649  MEMB      121             0.0000000000
     14122       121  SLPC      C314           -1.0183655050      -24.4772273426       -4.6525362598  MEMB      121             0.0000000000
     14123       121  SLPC      H14X           -1.2964074545      -23.9755719741       -3.7010343452  MEMB      121             0.0000000000
     14124       121  SLPC      H14Y            0.0824060128      -24.5358075028       -4.7910688189  MEMB      121             0.0000000000
     14125       121  SLPC      C315           -1.7579191932      -25.7712491313       -4.8391951444  MEMB      121             0.0000000000
     14126       121  SLPC      H15X           -1.6932349621      -26.1784502428       -5.8708560369  MEMB      121             0.0000000000
     14127       121  SLPC      H15Y           -2.7973068223      -25.6148640134       -4.4792807061  MEMB      121             0.0000000000
     14128       121  SLPC      C316           -1.1479596641      -26.9301394319       -3.9521948742  MEMB      121             0.0000000000
     14129       121  SLPC      H16X           -0.1804826051      -27.1887786317       -4.4332511879  MEMB      121             0.0000000000
     14130       121  SLPC      H16Y           -1.7953255718      -27.8233161593       -4.0843822119  MEMB      121             0.0000000000
     14131       121  SLPC      C317           -0.8312729485      -26.3694565742       -2.5150158720  MEMB      121             0.0000000000
     14132       121  SLPC      H17X           -0.0882261756      -25.5435471953       -2.5062773372  MEMB      121             0.0000000000
     14133       121  SLPC      H17Y           -0.3503998674      -27.2138554588       -1.9764328185  MEMB      121             0.0000000000
     14134       121  SLPC      C318           -2.0730358458      -25.9874957781       -1.6816307290  MEMB      121             0.0000000000
     14135       121  SLPC      H18X           -2.5140015205      -25.0192742669       -2.0016588072  MEMB      121             0.0000000000
     14136       121  SLPC      H18Y           -1.6711116612      -25.9353964889       -0.6471925662  MEMB      121             0.0000000000
     14137       121  SLPC      H18Z           -2.9302414497      -26.6812341465       -1.8167122390  MEMB      121             0.0000000000
     14138       122  SAPI      C12           -23.3546578543       -3.1276916436      -22.3343560331  MEMB      122             0.0000000000
     14139       122  SAPI      H2            -23.0108651895       -2.2784661981      -21.7059106212  MEMB      122             0.0000000000
     14140       122  SAPI      O2            -24.3227071524       -3.7504023969      -21.5357039268  MEMB      122             0.0000000000
     14141       122  SAPI      HO2           -24.0584587240       -3.6570791268      -20.6175190626  MEMB      122             0.0000000000
     14142       122  SAPI      C13           -23.8348266783       -2.6778295649      -23.6975795233  MEMB      122             0.0000000000
     14143       122  SAPI      H3            -22.9777408219       -2.1724344931      -24.1918473538  MEMB      122             0.0000000000
     14144       122  SAPI      O3            -24.6213050990       -1.5123405891      -23.5208922597  MEMB      122             0.0000000000
     14145       122  SAPI      HO3           -24.1064820704       -0.7080049562      -23.6188799136  MEMB      122             0.0000000000
     14146       122  SAPI      C14           -24.3035194168       -3.8234198265      -24.5864591002  MEMB      122             0.0000000000
     14147       122  SAPI      H4            -25.2350906546       -4.2264421982      -24.1347187415  MEMB      122             0.0000000000
     14148       122  SAPI      O4            -24.7548825757       -3.2671909240      -25.7959379621  MEMB      122             0.0000000000
     14149       122  SAPI      HO4           -24.7570597578       -3.9777714906      -26.4414379346  MEMB      122             0.0000000000
     14150       122  SAPI      C15           -23.2131636268       -4.7843701319      -24.7992525449  MEMB      122             0.0000000000
     14151       122  SAPI      H5            -22.4229654490       -4.2307809243      -25.3501126810  MEMB      122             0.0000000000
     14152       122  SAPI      O5            -23.7086625253       -5.8226145805      -25.6071286571  MEMB      122             0.0000000000
     14153       122  SAPI      HO5           -23.6775510377       -5.6392163208      -26.5489339995  MEMB      122             0.0000000000
     14154       122  SAPI      C16           -22.7218856860       -5.3290351353      -23.4845329663  MEMB      122             0.0000000000
     14155       122  SAPI      H6            -23.4838217903       -5.9101671138      -22.9223408254  MEMB      122             0.0000000000
     14156       122  SAPI      O6            -21.6808047526       -6.3008032774      -23.7113728094  MEMB      122             0.0000000000
     14157       122  SAPI      HO6           -21.8984203147       -7.1653189218      -24.0675419390  MEMB      122             0.0000000000
     14158       122  SAPI      C11           -22.1868452864       -4.1196976267      -22.6611295780  MEMB      122             0.0000000000
     14159       122  SAPI      H1            -21.4433238458       -3.6468353358      -23.3378113776  MEMB      122             0.0000000000
     14160       122  SAPI      P             -20.2864581157       -3.5774966185      -20.8378218921  MEMB      122             0.0000000000
     14161       122  SAPI      O13           -20.9026629347       -2.4590635997      -20.1201908465  MEMB      122             0.0000000000
     14162       122  SAPI      O14           -19.3367113027       -3.1230974435      -21.8632561455  MEMB      122             0.0000000000
     14163       122  SAPI      O12           -21.4309346871       -4.5951847088      -21.5359326222  MEMB      122             0.0000000000
     14164       122  SAPI      O11           -19.5774771864       -4.4761626756      -19.7366325585  MEMB      122             0.0000000000
     14165       122  SAPI      C1            -19.8935506873       -5.7350062048      -19.2585782081  MEMB      122             0.0000000000
     14166       122  SAPI      HA            -19.8935012154       -6.2878202277      -20.2222782013  MEMB      122             0.0000000000
     14167       122  SAPI      HB            -19.0919714091       -6.0510492685      -18.5572163949  MEMB      122             0.0000000000
     14168       122  SAPI      C2            -21.3424299226       -5.7529668566      -18.6770072062  MEMB      122             0.0000000000
     14169       122  SAPI      HS            -22.0547192446       -5.5602255518      -19.5075586106  MEMB      122             0.0000000000
     14170       122  SAPI      O21           -21.4870713819       -4.7020674829      -17.7143233240  MEMB      122             0.0000000000
     14171       122  SAPI      C21           -22.7875374383       -4.2519234873      -17.3820852604  MEMB      122             0.0000000000
     14172       122  SAPI      O22           -23.7614408930       -4.4193113451      -18.0669463732  MEMB      122             0.0000000000
     14173       122  SAPI      C22           -22.7907990544       -3.5667169304      -16.0373690937  MEMB      122             0.0000000000
     14174       122  SAPI      H2R           -22.5452781147       -4.3865816549      -15.3289464699  MEMB      122             0.0000000000
     14175       122  SAPI      H2S           -22.1618954007       -2.6630235442      -16.1861627836  MEMB      122             0.0000000000
     14176       122  SAPI      C3            -21.6012391767       -7.0919699052      -17.9705805231  MEMB      122             0.0000000000
     14177       122  SAPI      HX            -20.9676299588       -7.0989742545      -17.0579956336  MEMB      122             0.0000000000
     14178       122  SAPI      HY            -21.3726283255       -7.9504961710      -18.6376571049  MEMB      122             0.0000000000
     14179       122  SAPI      O31           -22.9569776417       -7.2012523511      -17.5888414449  MEMB      122             0.0000000000
     14180       122  SAPI      C31           -23.4185181735       -7.2394544023      -16.3525015827  MEMB      122             0.0000000000
     14181       122  SAPI      O32           -22.7407528254       -7.1339880347      -15.3763671961  MEMB      122             0.0000000000
     14182       122  SAPI      C32           -24.8730932899       -7.6403544187      -16.3564688696  MEMB      122             0.0000000000
     14183       122  SAPI      H2X           -24.8891819487       -8.7158284147      -16.6347099835  MEMB      122             0.0000000000
     14184       122  SAPI      H2Y           -25.4938376308       -7.2094428586      -17.1709091705  MEMB      122             0.0000000000
     14185       122  SAPI      C23           -24.2385438095       -3.1865422811      -15.7525569152  MEMB      122             0.0000000000
     14186       122  SAPI      H3R           -24.9262680371       -4.0176491241      -16.0182964222  MEMB      122             0.0000000000
     14187       122  SAPI      H3S           -24.6706588256       -2.2661663271      -16.2003357917  MEMB      122             0.0000000000
     14188       122  SAPI      C24           -24.5519202966       -3.0687994555      -14.2332284481  MEMB      122             0.0000000000
     14189       122  SAPI      H4R           -24.5891502266       -4.0654301692      -13.7436753005  MEMB      122             0.0000000000
     14190       122  SAPI      H4S           -25.5283556709       -2.5505935017      -14.1220646602  MEMB      122             0.0000000000
     14191       122  SAPI      C25           -23.5343948341       -2.2286311743      -13.4706090211  MEMB      122             0.0000000000
     14192       122  SAPI      H5R           -23.1502642043       -1.3817700697      -14.0582062820  MEMB      122             0.0000000000
     14193       122  SAPI      C26           -23.0754894786       -2.2903767716      -12.2179154900  MEMB      122             0.0000000000
     14194       122  SAPI      H6R           -22.3497720762       -1.5341275634      -11.8841173412  MEMB      122             0.0000000000
     14195       122  SAPI      C27           -23.4380201158       -3.3729635689      -11.1896871543  MEMB      122             0.0000000000
     14196       122  SAPI      H7R           -22.9271966497       -4.2568863210      -11.6279342656  MEMB      122             0.0000000000
     14197       122  SAPI      H7S           -24.5102607565       -3.6522494631      -11.2710552001  MEMB      122             0.0000000000
     14198       122  SAPI      C28           -23.0083020120       -3.1899366102       -9.7853423960  MEMB      122             0.0000000000
     14199       122  SAPI      H8R           -23.9039559543       -2.8303919716       -9.2575815705  MEMB      122             0.0000000000
     14200       122  SAPI      C29           -21.7669798452       -3.3750089069       -9.3071788059  MEMB      122             0.0000000000
     14201       122  SAPI      H9R           -21.6652701240       -3.3400881442       -8.2124479962  MEMB      122             0.0000000000
     14202       122  SAPI      C210          -20.5615303372       -3.8312254622      -10.0846779091  MEMB      122             0.0000000000
     14203       122  SAPI      H10R          -20.2195080446       -3.0008890927      -10.7388058381  MEMB      122             0.0000000000
     14204       122  SAPI      H10S          -20.8493001879       -4.5919040932      -10.8415647915  MEMB      122             0.0000000000
     14205       122  SAPI      C211          -19.3891099108       -4.1634646299       -9.1516685411  MEMB      122             0.0000000000
     14206       122  SAPI      H11R          -18.6664316180       -3.3396629717       -9.0563423827  MEMB      122             0.0000000000
     14207       122  SAPI      C212          -19.1950835904       -5.3529263046       -8.5085426551  MEMB      122             0.0000000000
     14208       122  SAPI      H12R          -18.3472437700       -5.5020986393       -7.8237683637  MEMB      122             0.0000000000
     14209       122  SAPI      C213          -20.1450066921       -6.5472465636       -8.5849792260  MEMB      122             0.0000000000
     14210       122  SAPI      H13R          -19.8149015160       -7.1920584071       -9.4273381688  MEMB      122             0.0000000000
     14211       122  SAPI      H13S          -21.1500105774       -6.2472636186       -8.9514462350  MEMB      122             0.0000000000
     14212       122  SAPI      C214          -20.1704565589       -7.4989753041       -7.3493061519  MEMB      122             0.0000000000
     14213       122  SAPI      H14R          -19.8699219546       -8.5187222774       -7.6317860087  MEMB      122             0.0000000000
     14214       122  SAPI      C215          -20.5445903151       -7.1780064235       -6.0681111339  MEMB      122             0.0000000000
     14215       122  SAPI      H15R          -20.2818508928       -8.0061658253       -5.3934855094  MEMB      122             0.0000000000
     14216       122  SAPI      C216          -21.1097797661       -5.8147136481       -5.5748784589  MEMB      122             0.0000000000
     14217       122  SAPI      H16R          -22.2203794812       -5.8436935849       -5.5678483169  MEMB      122             0.0000000000
     14218       122  SAPI      H16S          -20.7567326120       -4.9636033812       -6.1955949505  MEMB      122             0.0000000000
     14219       122  SAPI      C217          -20.7580995627       -5.5940582333       -4.0854641709  MEMB      122             0.0000000000
     14220       122  SAPI      H17R          -19.6559823207       -5.4546590613       -4.1005162934  MEMB      122             0.0000000000
     14221       122  SAPI      H17S          -21.0416037006       -6.5296019383       -3.5575402617  MEMB      122             0.0000000000
     14222       122  SAPI      C218          -21.4986874838       -4.3535126954       -3.4656627315  MEMB      122             0.0000000000
     14223       122  SAPI      H18R          -22.4709205454       -4.6477579992       -3.0156605088  MEMB      122             0.0000000000
     14224       122  SAPI      H18S          -21.8823652953       -3.6715378580       -4.2543478248  MEMB      122             0.0000000000
     14225       122  SAPI      C219          -20.6797502125       -3.5729142231       -2.4953244004  MEMB      122             0.0000000000
     14226       122  SAPI      H19R          -19.9316475798       -2.9664895435       -3.0493206092  MEMB      122             0.0000000000
     14227       122  SAPI      H19S          -20.1242975733       -4.3330506277       -1.9054202115  MEMB      122             0.0000000000
     14228       122  SAPI      C220          -21.3682736640       -2.6035743276       -1.5997432761  MEMB      122             0.0000000000
     14229       122  SAPI      H20R          -22.0844020207       -3.1507667010       -0.9500799635  MEMB      122             0.0000000000
     14230       122  SAPI      H20S          -22.0000817217       -1.9621030676       -2.2506294720  MEMB      122             0.0000000000
     14231       122  SAPI      H20T          -20.5878935699       -2.0626888324       -1.0228806021  MEMB      122             0.0000000000
     14232       122  SAPI      C33           -25.4125753034       -7.5473661259      -14.9088022719  MEMB      122             0.0000000000
     14233       122  SAPI      H3X           -26.5075806114       -7.7305194521      -14.8670998227  MEMB      122             0.0000000000
     14234       122  SAPI      H3Y           -25.2343297362       -6.5477390277      -14.4579194424  MEMB      122             0.0000000000
     14235       122  SAPI      C34           -24.8296442383       -8.6395632958      -14.0198779562  MEMB      122             0.0000000000
     14236       122  SAPI      H4X           -23.7733708850       -8.8637954944      -14.2812732253  MEMB      122             0.0000000000
     14237       122  SAPI      H4Y           -25.4375422855       -9.5351186335      -14.2704004979  MEMB      122             0.0000000000
     14238       122  SAPI      C35           -24.7852037015       -8.3940957080      -12.5054416675  MEMB      122             0.0000000000
     14239       122  SAPI      H5X           -23.9924291542       -9.1109390868      -12.2021838778  MEMB      122             0.0000000000
     14240       122  SAPI      H5Y           -25.8209943234       -8.6080973329      -12.1653505034  MEMB      122             0.0000000000
     14241       122  SAPI      C36           -24.2224836353       -7.0459286090      -12.0648177782  MEMB      122             0.0000000000
     14242       122  SAPI      H6X           -24.6524719495       -6.0829734994      -12.4143156797  MEMB      122             0.0000000000
     14243       122  SAPI      H6Y           -23.1458930602       -6.9977964286      -12.3349229231  MEMB      122             0.0000000000
     14244       122  SAPI      C37           -24.4685379319       -6.9388541335      -10.5163502380  MEMB      122             0.0000000000
     14245       122  SAPI      H7X           -25.5769781015       -6.9004456528      -10.4514944123  MEMB      122             0.0000000000
     14246       122  SAPI      H7Y           -24.2095986403       -5.8969769004      -10.2304074825  MEMB      122             0.0000000000
     14247       122  SAPI      C38           -23.8369195555       -7.9404441088       -9.6385283744  MEMB      122             0.0000000000
     14248       122  SAPI      H8X           -22.7610953759       -8.0975561731       -9.8670872774  MEMB      122             0.0000000000
     14249       122  SAPI      H8Y           -24.4447919144       -8.8672681327       -9.7147457906  MEMB      122             0.0000000000
     14250       122  SAPI      C39           -23.8367198825       -7.5218867120       -8.1711934841  MEMB      122             0.0000000000
     14251       122  SAPI      H9X           -23.3083070937       -6.5446061204       -8.1663467663  MEMB      122             0.0000000000
     14252       122  SAPI      H9Y           -23.2302621724       -8.2512535852       -7.5927870495  MEMB      122             0.0000000000
     14253       122  SAPI      C310          -25.2844172476       -7.5377172130       -7.6635585528  MEMB      122             0.0000000000
     14254       122  SAPI      H10X          -25.6919176659       -8.5705901151       -7.6256460963  MEMB      122             0.0000000000
     14255       122  SAPI      H10Y          -25.8352757750       -6.9094156176       -8.3957559427  MEMB      122             0.0000000000
     14256       122  SAPI      C311          -25.6381827954       -6.8800210846       -6.3001342992  MEMB      122             0.0000000000
     14257       122  SAPI      H11X          -26.6257096748       -6.3764442943       -6.3744458872  MEMB      122             0.0000000000
     14258       122  SAPI      H11Y          -24.8623867161       -6.1085318068       -6.1070907466  MEMB      122             0.0000000000
     14259       122  SAPI      C312          -25.5503652059       -7.7136226337       -4.9906790143  MEMB      122             0.0000000000
     14260       122  SAPI      H12X          -24.6379950299       -8.3467536333       -4.9583246334  MEMB      122             0.0000000000
     14261       122  SAPI      H12Y          -26.4235455495       -8.3941482236       -4.8970765600  MEMB      122             0.0000000000
     14262       122  SAPI      C313          -25.4216997768       -6.7953903444       -3.7446013538  MEMB      122             0.0000000000
     14263       122  SAPI      H13X          -26.2336138116       -6.0427549697       -3.8376416750  MEMB      122             0.0000000000
     14264       122  SAPI      H13Y          -24.5105722706       -6.1712681430       -3.8655954842  MEMB      122             0.0000000000
     14265       122  SAPI      C314          -25.6082465511       -7.5210327758       -2.3499412217  MEMB      122             0.0000000000
     14266       122  SAPI      H14X          -25.3751119188       -8.5953555090       -2.5105641730  MEMB      122             0.0000000000
     14267       122  SAPI      H14Y          -26.6568617387       -7.6477806925       -2.0054691235  MEMB      122             0.0000000000
     14268       122  SAPI      C315          -24.7436062534       -7.0468171389       -1.2237743748  MEMB      122             0.0000000000
     14269       122  SAPI      H15X          -23.6448943052       -7.1518529779       -1.3507405072  MEMB      122             0.0000000000
     14270       122  SAPI      H15Y          -24.9705297709       -7.4983403835       -0.2343542316  MEMB      122             0.0000000000
     14271       122  SAPI      C316          -24.9077486336       -5.4933884141       -0.9441228683  MEMB      122             0.0000000000
     14272       122  SAPI      H16X          -26.0112595607       -5.3662022199       -0.9643374811  MEMB      122             0.0000000000
     14273       122  SAPI      H16Y          -24.5625294155       -5.0520429242       -1.9034749461  MEMB      122             0.0000000000
     14274       122  SAPI      C317          -24.3502856785       -4.9455836746        0.3722961789  MEMB      122             0.0000000000
     14275       122  SAPI      H17X          -23.2542803950       -4.7854637088        0.2859529247  MEMB      122             0.0000000000
     14276       122  SAPI      H17Y          -24.3027595440       -5.6257997466        1.2494314288  MEMB      122             0.0000000000
     14277       122  SAPI      C318          -25.0121459772       -3.5804160373        0.6890281477  MEMB      122             0.0000000000
     14278       122  SAPI      H18X          -24.5471485209       -3.3068760852        1.6602499997  MEMB      122             0.0000000000
     14279       122  SAPI      H18Y          -26.0914946256       -3.7026144902        0.9222562638  MEMB      122             0.0000000000
     14280       122  SAPI      H18Z          -24.6952147428       -2.9633184983       -0.1787652138  MEMB      122             0.0000000000
     14281       123  SAPE      N             -15.2247984064        9.4022484595      -19.4668300329  MEMB      123             0.0000000000
     14282       123  SAPE      HN1           -15.6180844330        8.4683812705      -19.2326970599  MEMB      123             0.0000000000
     14283       123  SAPE      HN2           -14.3627842182        9.3474573729      -20.0460788768  MEMB      123             0.0000000000
     14284       123  SAPE      HN3           -14.9414541199        9.6846374446      -18.5068443538  MEMB      123             0.0000000000
     14285       123  SAPE      C12           -16.2374530399       10.3266589394      -20.0417021812  MEMB      123             0.0000000000
     14286       123  SAPE      H12A          -16.3494274891        9.9395328632      -21.0770359715  MEMB      123             0.0000000000
     14287       123  SAPE      H12B          -15.8908086231       11.3819851544      -20.0628036660  MEMB      123             0.0000000000
     14288       123  SAPE      C11           -17.5332020714       10.1419044419      -19.2950654399  MEMB      123             0.0000000000
     14289       123  SAPE      H11A          -17.7422396411       10.4763961602      -18.2564415073  MEMB      123             0.0000000000
     14290       123  SAPE      H11B          -17.6450031905        9.0382245817      -19.2341373900  MEMB      123             0.0000000000
     14291       123  SAPE      P             -19.1816834577       11.9866045805      -20.2771350938  MEMB      123             0.0000000000
     14292       123  SAPE      O13           -18.2764757794       12.5471939682      -21.3197223712  MEMB      123             0.0000000000
     14293       123  SAPE      O14           -20.6784539366       11.9758919648      -20.6188908743  MEMB      123             0.0000000000
     14294       123  SAPE      O12           -18.7428922979       10.4894616517      -20.0729780718  MEMB      123             0.0000000000
     14295       123  SAPE      O11           -18.8951370157       12.6706911949      -18.9076759202  MEMB      123             0.0000000000
     14296       123  SAPE      C1            -17.8197491462       13.6423497720      -18.8696829507  MEMB      123             0.0000000000
     14297       123  SAPE      HA            -16.8605069755       13.2407798640      -19.2607291890  MEMB      123             0.0000000000
     14298       123  SAPE      HB            -18.0283055370       14.5747635157      -19.4366307880  MEMB      123             0.0000000000
     14299       123  SAPE      C2            -17.4840140587       13.9183206237      -17.3547270598  MEMB      123             0.0000000000
     14300       123  SAPE      HS            -16.5943561230       14.5786189918      -17.4374073115  MEMB      123             0.0000000000
     14301       123  SAPE      O21           -17.4161372108       12.7732742132      -16.5726238087  MEMB      123             0.0000000000
     14302       123  SAPE      C21           -16.2549241171       12.1233320865      -16.7041518461  MEMB      123             0.0000000000
     14303       123  SAPE      O22           -15.3129452646       12.4740713803      -17.4471998082  MEMB      123             0.0000000000
     14304       123  SAPE      C22           -16.1529325688       10.8671004603      -15.8344807015  MEMB      123             0.0000000000
     14305       123  SAPE      H2R           -16.7308806147       10.0224084343      -16.2666757886  MEMB      123             0.0000000000
     14306       123  SAPE      H2S           -15.0662817454       10.6755739405      -15.7047556661  MEMB      123             0.0000000000
     14307       123  SAPE      C3            -18.6412032148       14.7464023237      -16.7244817680  MEMB      123             0.0000000000
     14308       123  SAPE      HX            -19.5674850431       14.1381550452      -16.6447432813  MEMB      123             0.0000000000
     14309       123  SAPE      HY            -18.8462079030       15.6843264630      -17.2835817239  MEMB      123             0.0000000000
     14310       123  SAPE      O31           -18.2404394348       15.2293037656      -15.4430082813  MEMB      123             0.0000000000
     14311       123  SAPE      C31           -18.6593005184       14.8325519558      -14.2480561775  MEMB      123             0.0000000000
     14312       123  SAPE      O32           -19.4076507416       13.8800396767      -14.0480063681  MEMB      123             0.0000000000
     14313       123  SAPE      C32           -18.0309566537       15.6159271640      -13.0962281581  MEMB      123             0.0000000000
     14314       123  SAPE      H2X           -18.6953844829       16.4942811496      -12.9501078855  MEMB      123             0.0000000000
     14315       123  SAPE      H2Y           -17.0622379071       16.0872679182      -13.3677851976  MEMB      123             0.0000000000
     14316       123  SAPE      C23           -16.7678672642       11.1099796197      -14.4472537781  MEMB      123             0.0000000000
     14317       123  SAPE      H3R           -17.8728426704       11.1421083146      -14.5582411451  MEMB      123             0.0000000000
     14318       123  SAPE      H3S           -16.3510010256       12.0740836804      -14.0852498501  MEMB      123             0.0000000000
     14319       123  SAPE      C24           -16.4165072589       10.0090638945      -13.3806843611  MEMB      123             0.0000000000
     14320       123  SAPE      H4R           -17.0766937202        9.1453742445      -13.6098463887  MEMB      123             0.0000000000
     14321       123  SAPE      H4S           -16.7845298831       10.3623995247      -12.3937523438  MEMB      123             0.0000000000
     14322       123  SAPE      C25           -14.8913557666        9.7352379528      -13.3327060691  MEMB      123             0.0000000000
     14323       123  SAPE      H5R           -14.4034765833        9.3101751035      -14.2222539473  MEMB      123             0.0000000000
     14324       123  SAPE      C26           -14.0023236937        9.8217247314      -12.2729696886  MEMB      123             0.0000000000
     14325       123  SAPE      H6R           -12.9562136638        9.5274004926      -12.4433408573  MEMB      123             0.0000000000
     14326       123  SAPE      C27           -14.3767071818       10.2872236667      -10.8555023804  MEMB      123             0.0000000000
     14327       123  SAPE      H7R           -15.4272960637       10.6485414566      -10.8496895708  MEMB      123             0.0000000000
     14328       123  SAPE      H7S           -13.6658282958       11.0954172605      -10.5801930917  MEMB      123             0.0000000000
     14329       123  SAPE      C28           -14.2821082000        9.1340205877       -9.8624363253  MEMB      123             0.0000000000
     14330       123  SAPE      H8R           -14.1283689985        8.1655665000      -10.3608949298  MEMB      123             0.0000000000
     14331       123  SAPE      C29           -14.7275670611        9.1984295184       -8.5698314261  MEMB      123             0.0000000000
     14332       123  SAPE      H9R           -14.6593310781        8.3487941065       -7.8745156752  MEMB      123             0.0000000000
     14333       123  SAPE      C210          -15.3740536145       10.3986536695       -7.8912771660  MEMB      123             0.0000000000
     14334       123  SAPE      H10R          -15.6509644443       11.2389744332       -8.5632161019  MEMB      123             0.0000000000
     14335       123  SAPE      H10S          -14.5973636992       10.7617621914       -7.1847173245  MEMB      123             0.0000000000
     14336       123  SAPE      C211          -16.7384652160       10.0963211234       -7.1461798141  MEMB      123             0.0000000000
     14337       123  SAPE      H11R          -17.2849586828        9.1659900534       -7.3602573249  MEMB      123             0.0000000000
     14338       123  SAPE      C212          -17.2852169303       10.9564349770       -6.2237051980  MEMB      123             0.0000000000
     14339       123  SAPE      H12R          -18.1472274155       10.5728394037       -5.6582029713  MEMB      123             0.0000000000
     14340       123  SAPE      C213          -16.7738213967       12.3020925277       -5.7287499438  MEMB      123             0.0000000000
     14341       123  SAPE      H13R          -17.7023476240       12.8253330644       -5.4150949146  MEMB      123             0.0000000000
     14342       123  SAPE      H13S          -16.5495236259       12.8248815057       -6.6830582362  MEMB      123             0.0000000000
     14343       123  SAPE      C214          -15.6829088167       12.4793098452       -4.7102160246  MEMB      123             0.0000000000
     14344       123  SAPE      H14R          -15.0752011195       13.3884710222       -4.8290330520  MEMB      123             0.0000000000
     14345       123  SAPE      C215          -15.3016393195       11.6575616084       -3.7200576139  MEMB      123             0.0000000000
     14346       123  SAPE      H15R          -14.4056987343       11.9162886816       -3.1366616765  MEMB      123             0.0000000000
     14347       123  SAPE      C216          -15.9061782044       10.3192687493       -3.2926352885  MEMB      123             0.0000000000
     14348       123  SAPE      H16R          -15.2318329540        9.9118790048       -2.5093007632  MEMB      123             0.0000000000
     14349       123  SAPE      H16S          -15.8990684868        9.6282677386       -4.1625710999  MEMB      123             0.0000000000
     14350       123  SAPE      C217          -17.3375089175       10.5216022304       -2.8316535931  MEMB      123             0.0000000000
     14351       123  SAPE      H17R          -18.0374716852       10.9908344045       -3.5556671390  MEMB      123             0.0000000000
     14352       123  SAPE      H17S          -17.3363937365       11.2219191606       -1.9691714590  MEMB      123             0.0000000000
     14353       123  SAPE      C218          -18.0537452073        9.1706146305       -2.5683850850  MEMB      123             0.0000000000
     14354       123  SAPE      H18R          -17.3324708066        8.5664837996       -1.9775296007  MEMB      123             0.0000000000
     14355       123  SAPE      H18S          -18.1052622628        8.6754397363       -3.5615964161  MEMB      123             0.0000000000
     14356       123  SAPE      C219          -19.4329721741        9.3206651592       -1.9508276813  MEMB      123             0.0000000000
     14357       123  SAPE      H19R          -20.0496578962        8.4381047744       -2.2248832022  MEMB      123             0.0000000000
     14358       123  SAPE      H19S          -19.8950604521       10.1631798324       -2.5084702031  MEMB      123             0.0000000000
     14359       123  SAPE      C220          -19.4135633319        9.5198811366       -0.5023236963  MEMB      123             0.0000000000
     14360       123  SAPE      H20R          -20.4330829739        9.7502157116       -0.1256975914  MEMB      123             0.0000000000
     14361       123  SAPE      H20S          -18.7598616693       10.3390234551       -0.1335403268  MEMB      123             0.0000000000
     14362       123  SAPE      H20T          -19.1161932596        8.5946928254        0.0361168827  MEMB      123             0.0000000000
     14363       123  SAPE      C33           -17.8521033370       14.6317768776      -11.8869756581  MEMB      123             0.0000000000
     14364       123  SAPE      H3X           -17.1888451749       13.8363578533      -12.2891181107  MEMB      123             0.0000000000
     14365       123  SAPE      H3Y           -18.8230069714       14.1692588757      -11.6081495033  MEMB      123             0.0000000000
     14366       123  SAPE      C34           -17.0554397962       15.0657994657      -10.6066598610  MEMB      123             0.0000000000
     14367       123  SAPE      H4X           -16.1889107581       15.6119722210      -11.0369434527  MEMB      123             0.0000000000
     14368       123  SAPE      H4Y           -16.7114811846       14.1898280074      -10.0161622520  MEMB      123             0.0000000000
     14369       123  SAPE      C35           -17.8160448974       16.0105814293       -9.7325624661  MEMB      123             0.0000000000
     14370       123  SAPE      H5X           -18.3653939219       16.8072348024      -10.2783459037  MEMB      123             0.0000000000
     14371       123  SAPE      H5Y           -17.2026413691       16.5568925387       -8.9844969168  MEMB      123             0.0000000000
     14372       123  SAPE      C36           -18.7745800453       15.4224103211       -8.7326670591  MEMB      123             0.0000000000
     14373       123  SAPE      H6X           -18.2838720605       14.4921172629       -8.3747820052  MEMB      123             0.0000000000
     14374       123  SAPE      H6Y           -19.7545558831       15.1172046167       -9.1578939791  MEMB      123             0.0000000000
     14375       123  SAPE      C37           -18.8519798378       16.3258160964       -7.4568967213  MEMB      123             0.0000000000
     14376       123  SAPE      H7X           -19.0853659864       17.3918724107       -7.6651647929  MEMB      123             0.0000000000
     14377       123  SAPE      H7Y           -17.8225246953       16.2699006750       -7.0428714180  MEMB      123             0.0000000000
     14378       123  SAPE      C38           -19.9108973710       15.7413578364       -6.4685276058  MEMB      123             0.0000000000
     14379       123  SAPE      H8X           -19.6387289774       14.6659503936       -6.4073376870  MEMB      123             0.0000000000
     14380       123  SAPE      H8Y           -20.9298401606       15.9388671603       -6.8648439061  MEMB      123             0.0000000000
     14381       123  SAPE      C39           -19.7693174099       16.1187492627       -5.0104859688  MEMB      123             0.0000000000
     14382       123  SAPE      H9X           -19.7180259241       17.1783237845       -4.6803466897  MEMB      123             0.0000000000
     14383       123  SAPE      H9Y           -18.7998284352       15.6553524168       -4.7282168485  MEMB      123             0.0000000000
     14384       123  SAPE      C310          -20.8798213944       15.4355297088       -4.1000486482  MEMB      123             0.0000000000
     14385       123  SAPE      H10X          -20.8722998718       14.3906203623       -4.4774446490  MEMB      123             0.0000000000
     14386       123  SAPE      H10Y          -21.8583473435       15.8755615313       -4.3884569477  MEMB      123             0.0000000000
     14387       123  SAPE      C311          -20.3268084373       15.6046490249       -2.6549355635  MEMB      123             0.0000000000
     14388       123  SAPE      H11X          -20.0682435774       16.6743041070       -2.5022824124  MEMB      123             0.0000000000
     14389       123  SAPE      H11Y          -19.4468544484       14.9341997250       -2.5524680891  MEMB      123             0.0000000000
     14390       123  SAPE      C312          -21.3446886156       15.0474895795       -1.4952131970  MEMB      123             0.0000000000
     14391       123  SAPE      H12X          -21.4099348312       13.9490483099       -1.6484802148  MEMB      123             0.0000000000
     14392       123  SAPE      H12Y          -22.3676471844       15.4192450256       -1.7180924332  MEMB      123             0.0000000000
     14393       123  SAPE      C313          -21.0517984367       15.5171415500       -0.1129768197  MEMB      123             0.0000000000
     14394       123  SAPE      H13X          -21.7142822756       15.0938907771        0.6720667050  MEMB      123             0.0000000000
     14395       123  SAPE      H13Y          -21.1364290581       16.6246244291       -0.0876718543  MEMB      123             0.0000000000
     14396       123  SAPE      C314          -19.6284540791       15.1240361040        0.3613994746  MEMB      123             0.0000000000
     14397       123  SAPE      H14X          -19.4296291749       15.6715761615        1.3074387238  MEMB      123             0.0000000000
     14398       123  SAPE      H14Y          -18.9271465294       15.4399503909       -0.4402780920  MEMB      123             0.0000000000
     14399       123  SAPE      C315          -19.4851807987       13.5861887770        0.6634735426  MEMB      123             0.0000000000
     14400       123  SAPE      H15X          -19.4943157854       13.0829189328       -0.3269580481  MEMB      123             0.0000000000
     14401       123  SAPE      H15Y          -20.2479556722       13.2221368416        1.3845583036  MEMB      123             0.0000000000
     14402       123  SAPE      C316          -18.1738164559       13.1763156109        1.2953276455  MEMB      123             0.0000000000
     14403       123  SAPE      H16X          -18.1966693886       12.0690981465        1.3840321389  MEMB      123             0.0000000000
     14404       123  SAPE      H16Y          -18.0534164526       13.5816660484        2.3227101958  MEMB      123             0.0000000000
     14405       123  SAPE      C317          -16.9496659284       13.4896750607        0.3977490475  MEMB      123             0.0000000000
     14406       123  SAPE      H17X          -17.1234040803       14.5389968245        0.0767192276  MEMB      123             0.0000000000
     14407       123  SAPE      H17Y          -16.9090808614       12.8910085840       -0.5372751654  MEMB      123             0.0000000000
     14408       123  SAPE      C318          -15.6861152848       13.1705822897        1.1539477535  MEMB      123             0.0000000000
     14409       123  SAPE      H18X          -15.3976221677       12.1023021932        1.2532975690  MEMB      123             0.0000000000
     14410       123  SAPE      H18Y          -15.9796346922       13.5813088403        2.1436312305  MEMB      123             0.0000000000
     14411       123  SAPE      H18Z          -14.8184687506       13.7411415202        0.7590143578  MEMB      123             0.0000000000
     14412       124  SLPC      N              20.6453497935       -2.9213595974      -16.1698061770  MEMB      124             0.0000000000
     14413       124  SLPC      C13            19.8539612540       -2.6914126928      -17.4775912258  MEMB      124             0.0000000000
     14414       124  SLPC      H13A           20.0215975290       -3.5416065193      -18.1221597872  MEMB      124             0.0000000000
     14415       124  SLPC      H13B           18.8591603182       -2.8267011568      -17.0795106688  MEMB      124             0.0000000000
     14416       124  SLPC      H13C           19.9014863800       -1.6836735797      -17.8630820072  MEMB      124             0.0000000000
     14417       124  SLPC      C14            20.2375272836       -1.7588777464      -15.2006618914  MEMB      124             0.0000000000
     14418       124  SLPC      H14A           20.4986335488       -0.7815841905      -15.5789745691  MEMB      124             0.0000000000
     14419       124  SLPC      H14B           19.1737964350       -1.9076322092      -15.0877511337  MEMB      124             0.0000000000
     14420       124  SLPC      H14C           20.7520583226       -1.9297150997      -14.2665995672  MEMB      124             0.0000000000
     14421       124  SLPC      C15            22.1094309161       -2.7550155455      -16.3164693677  MEMB      124             0.0000000000
     14422       124  SLPC      H15A           22.6273071553       -2.6066362658      -15.3804204198  MEMB      124             0.0000000000
     14423       124  SLPC      H15B           22.6023547580       -3.6395650372      -16.6919671388  MEMB      124             0.0000000000
     14424       124  SLPC      H15C           22.4023587589       -1.9567152762      -16.9822846034  MEMB      124             0.0000000000
     14425       124  SLPC      C12            20.2626587761       -4.2498012903      -15.4841155345  MEMB      124             0.0000000000
     14426       124  SLPC      H12A           19.1959030960       -4.4066924028      -15.4223299811  MEMB      124             0.0000000000
     14427       124  SLPC      H12B           20.5560489259       -4.2027567341      -14.4457953407  MEMB      124             0.0000000000
     14428       124  SLPC      C11            20.8544713110       -5.6190345723      -16.0092635676  MEMB      124             0.0000000000
     14429       124  SLPC      H11A           20.2953669294       -6.4656557248      -15.5565430344  MEMB      124             0.0000000000
     14430       124  SLPC      H11B           21.8615666416       -5.7006336701      -15.5472877173  MEMB      124             0.0000000000
     14431       124  SLPC      P              21.5493706160       -6.8305102179      -18.1412606509  MEMB      124             0.0000000000
     14432       124  SLPC      O13            20.9082996137       -7.0677097682      -19.4851716113  MEMB      124             0.0000000000
     14433       124  SLPC      O14            23.0635857044       -6.5964701020      -18.1893020799  MEMB      124             0.0000000000
     14434       124  SLPC      O12            20.8471343907       -5.6486923163      -17.4511311830  MEMB      124             0.0000000000
     14435       124  SLPC      O11            21.2098536896       -7.9863268609      -17.0752267316  MEMB      124             0.0000000000
     14436       124  SLPC      C1             21.4864836004       -9.3240000145      -17.5139192110  MEMB      124             0.0000000000
     14437       124  SLPC      HA             20.9919383820       -9.5751574043      -18.4765541422  MEMB      124             0.0000000000
     14438       124  SLPC      HB             22.5924573164       -9.4049477951      -17.5816741660  MEMB      124             0.0000000000
     14439       124  SLPC      C2             20.8948433954      -10.2759848856      -16.4839991858  MEMB      124             0.0000000000
     14440       124  SLPC      HS             20.5906534664      -11.1891957094      -17.0388288970  MEMB      124             0.0000000000
     14441       124  SLPC      O21            19.7714582240       -9.7599839735      -15.7323152217  MEMB      124             0.0000000000
     14442       124  SLPC      C21            18.6814446986       -9.5777182482      -16.4752158229  MEMB      124             0.0000000000
     14443       124  SLPC      O22            18.6410101383       -9.5034120789      -17.7110536641  MEMB      124             0.0000000000
     14444       124  SLPC      C22            17.5554648352       -9.4657687521      -15.5499336451  MEMB      124             0.0000000000
     14445       124  SLPC      H2R            16.5486170608       -9.5403598160      -16.0136310120  MEMB      124             0.0000000000
     14446       124  SLPC      H2S            17.6662968121      -10.1872584519      -14.7123836257  MEMB      124             0.0000000000
     14447       124  SLPC      C3             21.8739739589      -10.7237370508      -15.4282856660  MEMB      124             0.0000000000
     14448       124  SLPC      HX             22.8356304290      -10.9279929156      -15.9457964297  MEMB      124             0.0000000000
     14449       124  SLPC      HY             21.5112407955      -11.6700493940      -14.9730507347  MEMB      124             0.0000000000
     14450       124  SLPC      O31            22.1155108599       -9.7273586661      -14.4253733435  MEMB      124             0.0000000000
     14451       124  SLPC      C31            23.2325547701       -8.9648660018      -14.4279473294  MEMB      124             0.0000000000
     14452       124  SLPC      O32            24.1301564780       -9.0146540569      -15.3195695126  MEMB      124             0.0000000000
     14453       124  SLPC      C32            23.2290394279       -7.9627822534      -13.2175684655  MEMB      124             0.0000000000
     14454       124  SLPC      H2X            23.5218036389       -8.5526728046      -12.3227836620  MEMB      124             0.0000000000
     14455       124  SLPC      H2Y            22.1685102577       -7.6498245530      -13.1096039323  MEMB      124             0.0000000000
     14456       124  SLPC      C23            17.7344270846       -8.1256300039      -14.8289246907  MEMB      124             0.0000000000
     14457       124  SLPC      H3R            16.8208849589       -7.5670215145      -15.1250971389  MEMB      124             0.0000000000
     14458       124  SLPC      H3S            18.5001138695       -7.3734068905      -15.1156388324  MEMB      124             0.0000000000
     14459       124  SLPC      C24            17.6015261493       -8.2207192823      -13.2785446320  MEMB      124             0.0000000000
     14460       124  SLPC      H4R            16.7629644096       -8.8849136486      -12.9785761087  MEMB      124             0.0000000000
     14461       124  SLPC      H4S            17.3790341701       -7.2352275911      -12.8163493406  MEMB      124             0.0000000000
     14462       124  SLPC      C25            18.9098578721       -8.7279156501      -12.6313500053  MEMB      124             0.0000000000
     14463       124  SLPC      H5R            19.8201119700       -8.3285222029      -13.1275791978  MEMB      124             0.0000000000
     14464       124  SLPC      H5S            18.9548886452       -9.8269977184      -12.7872717483  MEMB      124             0.0000000000
     14465       124  SLPC      C26            18.9824790139       -8.4225781259      -11.0788769247  MEMB      124             0.0000000000
     14466       124  SLPC      H6R            18.0219050490       -8.8217517955      -10.6886480445  MEMB      124             0.0000000000
     14467       124  SLPC      H6S            18.8877042093       -7.3158572528      -11.1014113672  MEMB      124             0.0000000000
     14468       124  SLPC      C27            20.2014793808       -9.0009087975      -10.4609088198  MEMB      124             0.0000000000
     14469       124  SLPC      H7R            21.0306323506       -8.5715540384      -11.0629724824  MEMB      124             0.0000000000
     14470       124  SLPC      H7S            20.1276514183      -10.0941815130      -10.2775367942  MEMB      124             0.0000000000
     14471       124  SLPC      C28            20.4123088186       -8.3107654155       -9.1094037151  MEMB      124             0.0000000000
     14472       124  SLPC      H8R            19.4350527048       -8.3573234278       -8.5829788062  MEMB      124             0.0000000000
     14473       124  SLPC      H8S            20.5618802295       -7.2198135248       -9.2569616787  MEMB      124             0.0000000000
     14474       124  SLPC      C29            21.5012415637       -8.7197837945       -8.1636447261  MEMB      124             0.0000000000
     14475       124  SLPC      H9R            22.5318836168       -8.3819101164       -8.3469973545  MEMB      124             0.0000000000
     14476       124  SLPC      C210           21.4912703141       -9.4266129823       -6.9989005980  MEMB      124             0.0000000000
     14477       124  SLPC      H10R           22.4315601242       -9.4779733560       -6.4303792082  MEMB      124             0.0000000000
     14478       124  SLPC      C211           20.1233085376       -9.9424768320       -6.4235800233  MEMB      124             0.0000000000
     14479       124  SLPC      H11R           19.5752498807      -10.3441423586       -7.3025672716  MEMB      124             0.0000000000
     14480       124  SLPC      H11S           19.5495408920       -9.1256362065       -5.9358476699  MEMB      124             0.0000000000
     14481       124  SLPC      C212           20.3350458916      -11.1209045210       -5.5526695544  MEMB      124             0.0000000000
     14482       124  SLPC      H12R           21.0534756855      -11.8643101854       -5.9284445020  MEMB      124             0.0000000000
     14483       124  SLPC      C213           19.5645034674      -11.4363804835       -4.5033607052  MEMB      124             0.0000000000
     14484       124  SLPC      H13R           20.0526363309      -12.1478539658       -3.8210617479  MEMB      124             0.0000000000
     14485       124  SLPC      C214           18.3552407680      -10.7009727175       -3.9869451903  MEMB      124             0.0000000000
     14486       124  SLPC      H14R           17.4728581648      -11.3208168325       -3.7195220095  MEMB      124             0.0000000000
     14487       124  SLPC      H14S           18.0844033833       -9.8548879132       -4.6541098639  MEMB      124             0.0000000000
     14488       124  SLPC      C215           18.6939797750       -9.9630219219       -2.6529247837  MEMB      124             0.0000000000
     14489       124  SLPC      H15R           19.5635317344       -9.2974604355       -2.8406179997  MEMB      124             0.0000000000
     14490       124  SLPC      H15S           18.8485608184      -10.6986918387       -1.8348697027  MEMB      124             0.0000000000
     14491       124  SLPC      C216           17.5316933499       -9.1142607253       -2.1977051481  MEMB      124             0.0000000000
     14492       124  SLPC      H16R           16.6527065033       -9.7870627970       -2.1026227212  MEMB      124             0.0000000000
     14493       124  SLPC      H16S           17.2698947093       -8.4398684084       -3.0408993968  MEMB      124             0.0000000000
     14494       124  SLPC      C217           17.7794268091       -8.2116712267       -0.9643449708  MEMB      124             0.0000000000
     14495       124  SLPC      H17R           16.9126859257       -7.5390439831       -0.7892631199  MEMB      124             0.0000000000
     14496       124  SLPC      H17S           18.7342965078       -7.6566407487       -1.0846999343  MEMB      124             0.0000000000
     14497       124  SLPC      C218           18.0104770099       -9.0184118131        0.3539732101  MEMB      124             0.0000000000
     14498       124  SLPC      H18R           17.1453302690       -9.6269910293        0.6937863093  MEMB      124             0.0000000000
     14499       124  SLPC      H18S           18.2288870777       -8.2991134111        1.1720374975  MEMB      124             0.0000000000
     14500       124  SLPC      H18T           18.9186070410       -9.6543727655        0.2820396676  MEMB      124             0.0000000000
     14501       124  SLPC      C33            24.3338461036       -6.9786881818      -13.4052798401  MEMB      124             0.0000000000
     14502       124  SLPC      H3X            24.3867802345       -6.7631009170      -14.4938759689  MEMB      124             0.0000000000
     14503       124  SLPC      H3Y            25.2738797314       -7.5183271571      -13.1614602862  MEMB      124             0.0000000000
     14504       124  SLPC      C34            24.2478447785       -5.5674383348      -12.8020621499  MEMB      124             0.0000000000
     14505       124  SLPC      H4X            23.4740987553       -4.9411330708      -13.2953977354  MEMB      124             0.0000000000
     14506       124  SLPC      H4Y            25.2651640077       -5.1486804597      -12.9570619301  MEMB      124             0.0000000000
     14507       124  SLPC      C35            24.1162091691       -5.5938927724      -11.2421809847  MEMB      124             0.0000000000
     14508       124  SLPC      H5X            24.6269329403       -4.7043798605      -10.8152752590  MEMB      124             0.0000000000
     14509       124  SLPC      H5Y            24.5835769585       -6.5757509887      -11.0144909730  MEMB      124             0.0000000000
     14510       124  SLPC      C36            22.6379753998       -5.6152047257      -10.8875545115  MEMB      124             0.0000000000
     14511       124  SLPC      H6X            22.5460588463       -6.0130296439       -9.8543033008  MEMB      124             0.0000000000
     14512       124  SLPC      H6Y            22.0682154820       -6.3216300691      -11.5283801822  MEMB      124             0.0000000000
     14513       124  SLPC      C37            21.9217199836       -4.2814937105      -11.0690057888  MEMB      124             0.0000000000
     14514       124  SLPC      H7X            20.8337563572       -4.3671512332      -10.8608730322  MEMB      124             0.0000000000
     14515       124  SLPC      H7Y            22.0326544301       -4.0411525230      -12.1480098471  MEMB      124             0.0000000000
     14516       124  SLPC      C38            22.5257023573       -3.1124135917      -10.3317382592  MEMB      124             0.0000000000
     14517       124  SLPC      H8X            21.8598111084       -2.2317120812      -10.4553286517  MEMB      124             0.0000000000
     14518       124  SLPC      H8Y            23.5090739605       -2.8387147337      -10.7703614809  MEMB      124             0.0000000000
     14519       124  SLPC      C39            22.4152807450       -3.3427725062       -8.8562252868  MEMB      124             0.0000000000
     14520       124  SLPC      H9X            22.5999318683       -2.3360140701       -8.4241802726  MEMB      124             0.0000000000
     14521       124  SLPC      H9Y            23.2409441707       -4.0255972040       -8.5623700461  MEMB      124             0.0000000000
     14522       124  SLPC      C310           21.0257698929       -3.5982294837       -8.2851998007  MEMB      124             0.0000000000
     14523       124  SLPC      H10X           20.6428065904       -4.5994091118       -8.5772609206  MEMB      124             0.0000000000
     14524       124  SLPC      H10Y           20.2887166861       -2.9067264422       -8.7466074899  MEMB      124             0.0000000000
     14525       124  SLPC      C311           20.9098457742       -3.4124311251       -6.7772977601  MEMB      124             0.0000000000
     14526       124  SLPC      H11X           21.2386407026       -2.3865453323       -6.5056862818  MEMB      124             0.0000000000
     14527       124  SLPC      H11Y           21.6609384392       -4.0915114118       -6.3200990206  MEMB      124             0.0000000000
     14528       124  SLPC      C312           19.5158928812       -3.6363080231       -6.1465189858  MEMB      124             0.0000000000
     14529       124  SLPC      H12X           18.7544983951       -2.9470383720       -6.5702014544  MEMB      124             0.0000000000
     14530       124  SLPC      H12Y           19.5732099147       -3.3926299855       -5.0640881396  MEMB      124             0.0000000000
     14531       124  SLPC      C313           18.9432787586       -5.0552536438       -6.1571277038  MEMB      124             0.0000000000
     14532       124  SLPC      H13X           18.6970019067       -5.2802403834       -7.2168678868  MEMB      124             0.0000000000
     14533       124  SLPC      H13Y           17.9503003654       -5.0753315933       -5.6592196430  MEMB      124             0.0000000000
     14534       124  SLPC      C314           19.8366050007       -6.1797700869       -5.5594497403  MEMB      124             0.0000000000
     14535       124  SLPC      H14X           20.6177467385       -6.3080356225       -6.3389928185  MEMB      124             0.0000000000
     14536       124  SLPC      H14Y           19.2243064515       -7.1052005454       -5.5047695096  MEMB      124             0.0000000000
     14537       124  SLPC      C315           20.5092271276       -5.8746558392       -4.1757151339  MEMB      124             0.0000000000
     14538       124  SLPC      H15X           19.8693424539       -5.3936883780       -3.4053008032  MEMB      124             0.0000000000
     14539       124  SLPC      H15Y           21.3382423375       -5.1438378569       -4.2895586162  MEMB      124             0.0000000000
     14540       124  SLPC      C316           21.1947732029       -7.1211807106       -3.5314360181  MEMB      124             0.0000000000
     14541       124  SLPC      H16X           21.0987224515       -8.1167935478       -4.0150166468  MEMB      124             0.0000000000
     14542       124  SLPC      H16Y           20.6552468226       -7.2125868860       -2.5645453421  MEMB      124             0.0000000000
     14543       124  SLPC      C317           22.6937912845       -6.8729648558       -3.0855431976  MEMB      124             0.0000000000
     14544       124  SLPC      H17X           22.7068269564       -5.9365692283       -2.4877857892  MEMB      124             0.0000000000
     14545       124  SLPC      H17Y           23.2018276691       -6.6699343373       -4.0524967078  MEMB      124             0.0000000000
     14546       124  SLPC      C318           23.2807471645       -8.0851712755       -2.3749594338  MEMB      124             0.0000000000
     14547       124  SLPC      H18X           24.1991410178       -7.7436599765       -1.8512759681  MEMB      124             0.0000000000
     14548       124  SLPC      H18Y           23.5646068802       -8.9197248511       -3.0511730307  MEMB      124             0.0000000000
     14549       124  SLPC      H18Z           22.6109420254       -8.4745644338       -1.5786834146  MEMB      124             0.0000000000
     14550       125  OSM       N              21.3354423983        1.8185649903      -22.1333022868  MEMB      125             0.0000000000
     14551       125  OSM       C15            20.5838263949        1.1877060163      -23.2339897864  MEMB      125             0.0000000000
     14552       125  OSM       H15A           19.9071496687        0.5341911820      -22.7034929918  MEMB      125             0.0000000000
     14553       125  OSM       H15B           21.3041960442        0.5927167256      -23.7757050977  MEMB      125             0.0000000000
     14554       125  OSM       H15C           20.0854502702        1.8547064703      -23.9218352024  MEMB      125             0.0000000000
     14555       125  OSM       C14            20.2591917511        2.2893111856      -21.1369859127  MEMB      125             0.0000000000
     14556       125  OSM       H14A           19.5666911841        2.8573247938      -21.7404787922  MEMB      125             0.0000000000
     14557       125  OSM       H14B           20.7458340613        2.8875024930      -20.3808466180  MEMB      125             0.0000000000
     14558       125  OSM       H14C           19.7574009306        1.4719849860      -20.6404142632  MEMB      125             0.0000000000
     14559       125  OSM       C13            22.2059300896        0.7317251472      -21.5972952911  MEMB      125             0.0000000000
     14560       125  OSM       H13A           21.6152586064        0.0808224104      -20.9697344266  MEMB      125             0.0000000000
     14561       125  OSM       H13B           22.9435326589        1.2317505925      -20.9871174247  MEMB      125             0.0000000000
     14562       125  OSM       H13C           22.8447704481        0.2308375600      -22.3096116953  MEMB      125             0.0000000000
     14563       125  OSM       C12            22.3181039063        2.8518596682      -22.7009386851  MEMB      125             0.0000000000
     14564       125  OSM       H12A           22.0336985357        3.0198010775      -23.7291941790  MEMB      125             0.0000000000
     14565       125  OSM       H12B           23.2985322830        2.4015120846      -22.7493866132  MEMB      125             0.0000000000
     14566       125  OSM       C11            22.6031259778        4.1609820780      -21.9079625363  MEMB      125             0.0000000000
     14567       125  OSM       H11A           21.7570910508        4.8777395911      -21.9772772810  MEMB      125             0.0000000000
     14568       125  OSM       H11B           23.4508538544        4.6859671286      -22.3979311295  MEMB      125             0.0000000000
     14569       125  OSM       P              24.1913265906        4.1460613640      -19.7002143314  MEMB      125             0.0000000000
     14570       125  OSM       O13            25.4606301409        3.4750847173      -20.1968173638  MEMB      125             0.0000000000
     14571       125  OSM       O14            24.2661128667        5.5555730762      -19.2945823507  MEMB      125             0.0000000000
     14572       125  OSM       O11            23.7640667767        3.3348506230      -18.5045882510  MEMB      125             0.0000000000
     14573       125  OSM       O12            22.9802812074        3.8359804239      -20.5933231992  MEMB      125             0.0000000000
     14574       125  OSM       C1S            22.4100432072        2.9023389884      -18.3106311483  MEMB      125             0.0000000000
     14575       125  OSM       H1S            22.2048299405        2.0962038009      -19.0470783880  MEMB      125             0.0000000000
     14576       125  OSM       H1T            21.6181334421        3.6810802028      -18.3382349616  MEMB      125             0.0000000000
     14577       125  OSM       NF             22.2694999600        3.5390578061      -15.8137867504  MEMB      125             0.0000000000
     14578       125  OSM       HNF            23.0906244126        3.6774188948      -15.2654985807  MEMB      125             0.0000000000
     14579       125  OSM       C2S            22.2799550836        2.4652839301      -16.8214117134  MEMB      125             0.0000000000
     14580       125  OSM       H2S            21.2811873303        1.9797035087      -16.7898576247  MEMB      125             0.0000000000
     14581       125  OSM       C3S            23.3771445976        1.4661952650      -16.5618864766  MEMB      125             0.0000000000
     14582       125  OSM       H3S            24.2595320091        2.1412248238      -16.5688388064  MEMB      125             0.0000000000
     14583       125  OSM       O3             23.3766106427        0.4197812136      -17.5645623172  MEMB      125             0.0000000000
     14584       125  OSM       HO3            22.8114168589        0.7805948498      -18.2515625650  MEMB      125             0.0000000000
     14585       125  OSM       C4S            23.2864835034        0.9138490199      -15.1773937327  MEMB      125             0.0000000000
     14586       125  OSM       H4S            22.2548026882        0.6235277877      -14.9297080047  MEMB      125             0.0000000000
     14587       125  OSM       C5S            24.1714231272        0.9295501088      -14.2512436118  MEMB      125             0.0000000000
     14588       125  OSM       H5S            25.0844020059        1.5280731261      -14.3862985777  MEMB      125             0.0000000000
     14589       125  OSM       C6S            23.9848922589        0.3670989559      -12.8378582957  MEMB      125             0.0000000000
     14590       125  OSM       H6S            24.9485222766        0.4316154869      -12.2886993763  MEMB      125             0.0000000000
     14591       125  OSM       H6T            23.5363431520       -0.6486349371      -12.8754056199  MEMB      125             0.0000000000
     14592       125  OSM       C7S            22.9569658930        1.2312197484      -12.0939701786  MEMB      125             0.0000000000
     14593       125  OSM       H7S            22.0898664578        1.4148152044      -12.7638601336  MEMB      125             0.0000000000
     14594       125  OSM       H7T            23.3540746683        2.2571388125      -11.9386787524  MEMB      125             0.0000000000
     14595       125  OSM       C8S            22.7516451120        0.6423949974      -10.7041740490  MEMB      125             0.0000000000
     14596       125  OSM       H8S            23.6828204324        0.6868939200      -10.0998115171  MEMB      125             0.0000000000
     14597       125  OSM       H8T            22.2991730808       -0.3716962061      -10.7389495351  MEMB      125             0.0000000000
     14598       125  OSM       C9S            21.8524232952        1.4630811187       -9.8057958517  MEMB      125             0.0000000000
     14599       125  OSM       H9S            21.6587434323        0.8518180081       -8.8985100467  MEMB      125             0.0000000000
     14600       125  OSM       H9T            20.9774515128        1.6843203003      -10.4537147881  MEMB      125             0.0000000000
     14601       125  OSM       C10S           22.1713636805        2.9142764138       -9.4917925070  MEMB      125             0.0000000000
     14602       125  OSM       H10S           22.4897552480        3.3414989689      -10.4666916868  MEMB      125             0.0000000000
     14603       125  OSM       H10T           23.1339772942        2.7625694655       -8.9582376350  MEMB      125             0.0000000000
     14604       125  OSM       C11S           21.0536448792        3.6701203905       -8.8280301967  MEMB      125             0.0000000000
     14605       125  OSM       H11S           20.1126035202        3.8176325382       -9.3998718018  MEMB      125             0.0000000000
     14606       125  OSM       H11T           21.4208549901        4.6969463339       -8.6156484286  MEMB      125             0.0000000000
     14607       125  OSM       C12S           20.7083933118        3.0773458291       -7.4574630680  MEMB      125             0.0000000000
     14608       125  OSM       H12S           21.5850076816        2.5216665653       -7.0611186929  MEMB      125             0.0000000000
     14609       125  OSM       H12T           19.9091262962        2.3405685948       -7.6869239424  MEMB      125             0.0000000000
     14610       125  OSM       C13S           20.1480771918        4.1371545062       -6.5060215027  MEMB      125             0.0000000000
     14611       125  OSM       H13S           19.2592455233        4.6065413565       -6.9792824015  MEMB      125             0.0000000000
     14612       125  OSM       H13T           20.9638893666        4.8826296586       -6.3918370504  MEMB      125             0.0000000000
     14613       125  OSM       C14S           19.8002758363        3.6134278277       -5.0402812872  MEMB      125             0.0000000000
     14614       125  OSM       H14S           20.6155375571        3.0102383772       -4.5865940534  MEMB      125             0.0000000000
     14615       125  OSM       H14T           18.9671346499        2.8916828899       -5.1791363566  MEMB      125             0.0000000000
     14616       125  OSM       C15S           19.5818849286        4.8374093651       -4.1016009460  MEMB      125             0.0000000000
     14617       125  OSM       H15S           18.8631782297        5.5987744708       -4.4732258622  MEMB      125             0.0000000000
     14618       125  OSM       H15T           20.4905667977        5.4766163909       -4.0958944291  MEMB      125             0.0000000000
     14619       125  OSM       C16S           19.1025674009        4.3429930617       -2.7274029437  MEMB      125             0.0000000000
     14620       125  OSM       H16S           19.6320132824        3.4004945379       -2.4710749828  MEMB      125             0.0000000000
     14621       125  OSM       H16T           18.0014055924        4.2032301224       -2.7746237772  MEMB      125             0.0000000000
     14622       125  OSM       C17S           19.5196626713        5.2052356076       -1.5012558927  MEMB      125             0.0000000000
     14623       125  OSM       H17S           20.6108322837        5.0009103961       -1.4574240792  MEMB      125             0.0000000000
     14624       125  OSM       H17T           19.0436476879        4.8418867767       -0.5654632271  MEMB      125             0.0000000000
     14625       125  OSM       C18S           19.1726171492        6.7168708629       -1.6566399433  MEMB      125             0.0000000000
     14626       125  OSM       H18S           18.0681144878        6.8351472478       -1.6767852251  MEMB      125             0.0000000000
     14627       125  OSM       H18T           19.7542390507        7.2125973062       -2.4630466962  MEMB      125             0.0000000000
     14628       125  OSM       H18U           19.4114797496        7.0706417283       -0.6309149332  MEMB      125             0.0000000000
     14629       125  OSM       C1F            21.2300859606        4.3812570875      -15.6417087685  MEMB      125             0.0000000000
     14630       125  OSM       OF             20.1943005650        4.4026907423      -16.3115727307  MEMB      125             0.0000000000
     14631       125  OSM       C2F            21.3818523135        5.4190213792      -14.6182150187  MEMB      125             0.0000000000
     14632       125  OSM       H2F            21.6454152797        6.3746047809      -15.1199279726  MEMB      125             0.0000000000
     14633       125  OSM       H2G            22.2898390427        5.3379278264      -13.9831522541  MEMB      125             0.0000000000
     14634       125  OSM       C3F            20.2055484391        5.4982851333      -13.6739176467  MEMB      125             0.0000000000
     14635       125  OSM       H3F            20.0224641240        4.5546144326      -13.1168840017  MEMB      125             0.0000000000
     14636       125  OSM       H3G            19.3486902979        5.7571311078      -14.3320316562  MEMB      125             0.0000000000
     14637       125  OSM       C4F            20.2871102474        6.5645261602      -12.5690161936  MEMB      125             0.0000000000
     14638       125  OSM       H4F            19.2138421665        6.7423970146      -12.3436765438  MEMB      125             0.0000000000
     14639       125  OSM       H4G            20.6547180312        7.4488419756      -13.1321962213  MEMB      125             0.0000000000
     14640       125  OSM       C5F            21.2480836559        6.1925962940      -11.4465674313  MEMB      125             0.0000000000
     14641       125  OSM       H5F            22.2106032966        5.9716870527      -11.9555624553  MEMB      125             0.0000000000
     14642       125  OSM       H5G            21.0885375407        5.1884096615      -10.9988232116  MEMB      125             0.0000000000
     14643       125  OSM       C6F            21.4873292544        7.2353304238      -10.3486224601  MEMB      125             0.0000000000
     14644       125  OSM       H6F            20.7284796847        7.1043315819       -9.5478057692  MEMB      125             0.0000000000
     14645       125  OSM       H6G            21.2616139310        8.2058518358      -10.8400102383  MEMB      125             0.0000000000
     14646       125  OSM       C7F            22.9916643038        7.2647414712       -9.9196564389  MEMB      125             0.0000000000
     14647       125  OSM       H7F            23.5973246140        7.6682113450      -10.7591262600  MEMB      125             0.0000000000
     14648       125  OSM       H7G            23.3249330964        6.2068847304       -9.8549126541  MEMB      125             0.0000000000
     14649       125  OSM       C8F            23.1507921583        8.0173965724       -8.5444270197  MEMB      125             0.0000000000
     14650       125  OSM       H8F            22.8681082132        9.0556333413       -8.8209681964  MEMB      125             0.0000000000
     14651       125  OSM       H8G            24.1982317471        8.1842965635       -8.2137670461  MEMB      125             0.0000000000
     14652       125  OSM       C9F            22.1920646519        7.6170245468       -7.4134858064  MEMB      125             0.0000000000
     14653       125  OSM       H9F            21.1573532079        7.8746030101       -7.6837188254  MEMB      125             0.0000000000
     14654       125  OSM       C10F           22.4951064606        7.0102006142       -6.2442078487  MEMB      125             0.0000000000
     14655       125  OSM       H10F           21.6670839269        6.9663507680       -5.5213972773  MEMB      125             0.0000000000
     14656       125  OSM       C11F           23.8886590259        6.5681299050       -5.8606458347  MEMB      125             0.0000000000
     14657       125  OSM       H11F           24.2815948513        7.2544382825       -5.0803230590  MEMB      125             0.0000000000
     14658       125  OSM       H11G           24.5756456506        6.7323162202       -6.7182082148  MEMB      125             0.0000000000
     14659       125  OSM       C12F           23.8627467307        5.0657005605       -5.5743369630  MEMB      125             0.0000000000
     14660       125  OSM       H12F           24.8506366983        4.6909741852       -5.9178110802  MEMB      125             0.0000000000
     14661       125  OSM       H12G           23.0636431697        4.5319816407       -6.1319192147  MEMB      125             0.0000000000
     14662       125  OSM       C13F           23.6103087512        4.6738879630       -4.1143337018  MEMB      125             0.0000000000
     14663       125  OSM       H13F           22.6169192053        5.0824172546       -3.8304282673  MEMB      125             0.0000000000
     14664       125  OSM       H13G           24.3375590235        5.1103255119       -3.3967333785  MEMB      125             0.0000000000
     14665       125  OSM       C14F           23.5759638303        3.1777479056       -3.9966774893  MEMB      125             0.0000000000
     14666       125  OSM       H14F           24.6066893385        2.7669269157       -4.0528196116  MEMB      125             0.0000000000
     14667       125  OSM       H14G           22.9028939664        2.7866031238       -4.7893335267  MEMB      125             0.0000000000
     14668       125  OSM       C15F           22.9662802843        2.6717601423       -2.6333914898  MEMB      125             0.0000000000
     14669       125  OSM       H15F           21.9569231871        3.0656304235       -2.3876557919  MEMB      125             0.0000000000
     14670       125  OSM       H15G           23.5977824392        3.0053545099       -1.7823663045  MEMB      125             0.0000000000
     14671       125  OSM       C16F           22.7468815719        1.0533521090       -2.6240169523  MEMB      125             0.0000000000
     14672       125  OSM       H16F           23.6051589991        0.6403332516       -3.1959401721  MEMB      125             0.0000000000
     14673       125  OSM       H16G           21.7417053306        0.9314369792       -3.0812680891  MEMB      125             0.0000000000
     14674       125  OSM       C17F           22.8560266011        0.4622025709       -1.2448187919  MEMB      125             0.0000000000
     14675       125  OSM       H17F           23.7965420406        0.7926504290       -0.7543528188  MEMB      125             0.0000000000
     14676       125  OSM       H17G           22.8734631913       -0.6462839926       -1.3174439198  MEMB      125             0.0000000000
     14677       125  OSM       C18F           21.7523195461        0.8483750204       -0.3160650950  MEMB      125             0.0000000000
     14678       125  OSM       H18F           22.0663046714        0.5191674275        0.6975206706  MEMB      125             0.0000000000
     14679       125  OSM       H18G           20.8079726970        0.3463380725       -0.6168782147  MEMB      125             0.0000000000
     14680       125  OSM       H18H           21.5191212828        1.9255007790       -0.4565610552  MEMB      125             0.0000000000
     14681       126  OSM       N             -10.1183183529       20.3559692876      -22.1266681239  MEMB      126             0.0000000000
     14682       126  OSM       C15           -11.0678715890       19.8517542271      -23.1484149041  MEMB      126             0.0000000000
     14683       126  OSM       H15A          -12.0094094449       20.3734214140      -23.0602700455  MEMB      126             0.0000000000
     14684       126  OSM       H15B          -11.3144502673       18.8051774329      -23.0470435167  MEMB      126             0.0000000000
     14685       126  OSM       H15C          -10.7449410139       20.1778804987      -24.1260433760  MEMB      126             0.0000000000
     14686       126  OSM       C14           -10.8098362665       20.3482368069      -20.7965820650  MEMB      126             0.0000000000
     14687       126  OSM       H14A          -10.6755168566       19.3962341642      -20.3045971770  MEMB      126             0.0000000000
     14688       126  OSM       H14B          -11.8056630607       20.7618580743      -20.8569699575  MEMB      126             0.0000000000
     14689       126  OSM       H14C          -10.2680878740       21.1054426027      -20.2492723192  MEMB      126             0.0000000000
     14690       126  OSM       C13            -8.9475972693       19.4438068011      -22.0781636642  MEMB      126             0.0000000000
     14691       126  OSM       H13A           -8.3925979816       19.6000611178      -22.9913778481  MEMB      126             0.0000000000
     14692       126  OSM       H13B           -9.3298879908       18.4343884054      -22.1146081605  MEMB      126             0.0000000000
     14693       126  OSM       H13C           -8.3221081538       19.6882649915      -21.2323482928  MEMB      126             0.0000000000
     14694       126  OSM       C12            -9.7151102924       21.7739588440      -22.5203343781  MEMB      126             0.0000000000
     14695       126  OSM       H12A          -10.5647990738       22.4196021670      -22.3542808464  MEMB      126             0.0000000000
     14696       126  OSM       H12B           -9.6268703350       21.8038300717      -23.5963089328  MEMB      126             0.0000000000
     14697       126  OSM       C11            -8.5209139933       22.4357630450      -21.8608623649  MEMB      126             0.0000000000
     14698       126  OSM       H11A           -8.4657152947       23.5440745485      -21.9148965302  MEMB      126             0.0000000000
     14699       126  OSM       H11B           -7.6107929718       22.1213190677      -22.4150515435  MEMB      126             0.0000000000
     14700       126  OSM       P              -7.1325217325       22.2077628760      -19.6921489761  MEMB      126             0.0000000000
     14701       126  OSM       O13            -6.9873901763       21.0026681318      -18.8618813100  MEMB      126             0.0000000000
     14702       126  OSM       O14            -5.9905407304       22.6938641874      -20.5218483285  MEMB      126             0.0000000000
     14703       126  OSM       O11            -7.6536259131       23.4854902940      -18.8283519307  MEMB      126             0.0000000000
     14704       126  OSM       O12            -8.4498194038       22.0133983975      -20.5647439592  MEMB      126             0.0000000000
     14705       126  OSM       C1S            -8.8578119148       23.3910238137      -18.1601293322  MEMB      126             0.0000000000
     14706       126  OSM       H1S            -9.6375626802       22.7416833389      -18.6125305720  MEMB      126             0.0000000000
     14707       126  OSM       H1T            -9.2323703053       24.4369263963      -18.1708482864  MEMB      126             0.0000000000
     14708       126  OSM       NF            -10.0036198139       23.1762162398      -15.9414074036  MEMB      126             0.0000000000
     14709       126  OSM       HNF           -10.1071538223       23.9560462409      -15.3289085167  MEMB      126             0.0000000000
     14710       126  OSM       C2S            -8.6628530572       23.0617351612      -16.6247215581  MEMB      126             0.0000000000
     14711       126  OSM       H2S            -8.1405380504       22.0920751369      -16.4788879142  MEMB      126             0.0000000000
     14712       126  OSM       C3S            -7.7375113502       24.1656083097      -15.9112558750  MEMB      126             0.0000000000
     14713       126  OSM       H3S            -8.1162100552       25.1986765088      -16.0651333731  MEMB      126             0.0000000000
     14714       126  OSM       O3             -6.3700933632       24.1260684288      -16.3151666698  MEMB      126             0.0000000000
     14715       126  OSM       HO3            -6.2520209910       23.2902464617      -16.7723980326  MEMB      126             0.0000000000
     14716       126  OSM       C4S            -7.6622039958       23.8253415508      -14.4092103722  MEMB      126             0.0000000000
     14717       126  OSM       H4S            -7.1796677459       22.9169662224      -14.0193220945  MEMB      126             0.0000000000
     14718       126  OSM       C5S            -8.3512632270       24.5770733317      -13.5256037672  MEMB      126             0.0000000000
     14719       126  OSM       H5S            -9.1251279259       25.3050068280      -13.8106410604  MEMB      126             0.0000000000
     14720       126  OSM       C6S            -8.3478407989       24.3153869431      -11.9936689733  MEMB      126             0.0000000000
     14721       126  OSM       H6S            -9.3355129307       24.3565149060      -11.4865863394  MEMB      126             0.0000000000
     14722       126  OSM       H6T            -7.7603103710       25.1194547465      -11.5011208896  MEMB      126             0.0000000000
     14723       126  OSM       C7S            -7.5614839384       23.0116353860      -11.4562925301  MEMB      126             0.0000000000
     14724       126  OSM       H7S            -6.5259512974       23.1856192402      -11.8192285642  MEMB      126             0.0000000000
     14725       126  OSM       H7T            -7.9397049629       22.1157116368      -11.9934984103  MEMB      126             0.0000000000
     14726       126  OSM       C8S            -7.5255025248       22.8727925956       -9.9217127056  MEMB      126             0.0000000000
     14727       126  OSM       H8S            -8.5045117570       22.7746132702       -9.4057446892  MEMB      126             0.0000000000
     14728       126  OSM       H8T            -6.9421972643       23.7458311506       -9.5585605184  MEMB      126             0.0000000000
     14729       126  OSM       C9S            -6.5340445235       21.7585894962       -9.5341040220  MEMB      126             0.0000000000
     14730       126  OSM       H9S            -5.5510567968       22.1862910910       -9.8258707270  MEMB      126             0.0000000000
     14731       126  OSM       H9T            -6.7406815630       20.7569369727       -9.9680561653  MEMB      126             0.0000000000
     14732       126  OSM       C10S           -6.5793254586       21.5853132028       -8.0086749648  MEMB      126             0.0000000000
     14733       126  OSM       H10S           -5.7173755184       20.9189936472       -7.7910028098  MEMB      126             0.0000000000
     14734       126  OSM       H10T           -7.5586953193       21.1423230501       -7.7277563894  MEMB      126             0.0000000000
     14735       126  OSM       C11S           -6.3593293561       22.8600249874       -7.1550813061  MEMB      126             0.0000000000
     14736       126  OSM       H11S           -7.1914632346       23.5402971743       -7.4363355062  MEMB      126             0.0000000000
     14737       126  OSM       H11T           -5.3878293198       23.3361711517       -7.4076549781  MEMB      126             0.0000000000
     14738       126  OSM       C12S           -6.5072150968       22.5190390992       -5.6263814643  MEMB      126             0.0000000000
     14739       126  OSM       H12S           -5.7118877883       21.8338703255       -5.2626233646  MEMB      126             0.0000000000
     14740       126  OSM       H12T           -7.5614306336       22.1687243766       -5.6112160140  MEMB      126             0.0000000000
     14741       126  OSM       C13S           -6.3927475271       23.6908148491       -4.7112786878  MEMB      126             0.0000000000
     14742       126  OSM       H13S           -5.3863015737       24.1405445950       -4.8495932039  MEMB      126             0.0000000000
     14743       126  OSM       H13T           -6.4296105613       23.3521264621       -3.6538043510  MEMB      126             0.0000000000
     14744       126  OSM       C14S           -7.4042351616       24.8120773457       -4.8710965924  MEMB      126             0.0000000000
     14745       126  OSM       H14S           -8.4340793515       24.4012567636       -4.8006115170  MEMB      126             0.0000000000
     14746       126  OSM       H14T           -7.3955398163       25.2253651992       -5.9023285217  MEMB      126             0.0000000000
     14747       126  OSM       C15S           -7.2884596595       26.0044382041       -3.8436278536  MEMB      126             0.0000000000
     14748       126  OSM       H15S           -8.1519227634       26.6634899589       -4.0768736061  MEMB      126             0.0000000000
     14749       126  OSM       H15T           -6.3427988487       26.5492512657       -4.0515360403  MEMB      126             0.0000000000
     14750       126  OSM       C16S           -7.3696667002       25.5584467843       -2.3515109141  MEMB      126             0.0000000000
     14751       126  OSM       H16S           -7.2222081850       26.4919881585       -1.7674932951  MEMB      126             0.0000000000
     14752       126  OSM       H16T           -6.4804250991       24.9422355844       -2.0988177386  MEMB      126             0.0000000000
     14753       126  OSM       C17S           -8.6696068613       24.9421732046       -1.8991488992  MEMB      126             0.0000000000
     14754       126  OSM       H17S           -8.6587106828       23.8706053218       -2.1923127323  MEMB      126             0.0000000000
     14755       126  OSM       H17T           -9.4014492642       25.3929166498       -2.6031083193  MEMB      126             0.0000000000
     14756       126  OSM       C18S           -9.0438011184       25.1533437465       -0.4116098712  MEMB      126             0.0000000000
     14757       126  OSM       H18S           -9.8583637202       24.4479723490       -0.1409434949  MEMB      126             0.0000000000
     14758       126  OSM       H18T           -9.2162689290       26.2280214191       -0.1888009702  MEMB      126             0.0000000000
     14759       126  OSM       H18U           -8.2370792651       24.7965439718        0.2638270444  MEMB      126             0.0000000000
     14760       126  OSM       C1F           -11.0944955995       22.4093595408      -16.2049976045  MEMB      126             0.0000000000
     14761       126  OSM       OF            -11.1298474934       21.4430560648      -16.9433611968  MEMB      126             0.0000000000
     14762       126  OSM       C2F           -12.2974126800       22.7995287363      -15.3969238191  MEMB      126             0.0000000000
     14763       126  OSM       H2F           -13.0931610251       23.2886573936      -15.9984707546  MEMB      126             0.0000000000
     14764       126  OSM       H2G           -11.9671347110       23.4973325322      -14.5979823300  MEMB      126             0.0000000000
     14765       126  OSM       C3F           -12.8322519799       21.4277044653      -14.7624100627  MEMB      126             0.0000000000
     14766       126  OSM       H3F           -11.9583419799       21.0579958547      -14.1845536652  MEMB      126             0.0000000000
     14767       126  OSM       H3G           -13.0593080786       20.6361204650      -15.5081727292  MEMB      126             0.0000000000
     14768       126  OSM       C4F           -14.0234706929       21.5490596055      -13.7349279300  MEMB      126             0.0000000000
     14769       126  OSM       H4F           -14.0341011924       20.5363851678      -13.2780921691  MEMB      126             0.0000000000
     14770       126  OSM       H4G           -15.0217036747       21.6298301125      -14.2158934532  MEMB      126             0.0000000000
     14771       126  OSM       C5F           -13.7795903463       22.6280477264      -12.6233736559  MEMB      126             0.0000000000
     14772       126  OSM       H5F           -14.5567457020       22.6568192064      -11.8299494641  MEMB      126             0.0000000000
     14773       126  OSM       H5G           -13.9654939862       23.6071442678      -13.1144242932  MEMB      126             0.0000000000
     14774       126  OSM       C6F           -12.4187537015       22.5926605404      -11.9264851048  MEMB      126             0.0000000000
     14775       126  OSM       H6F           -12.2281708937       23.5171262359      -11.3405143957  MEMB      126             0.0000000000
     14776       126  OSM       H6G           -11.5091339229       22.6758557169      -12.5589345892  MEMB      126             0.0000000000
     14777       126  OSM       C7F           -12.2250671966       21.3737456275      -11.0186673704  MEMB      126             0.0000000000
     14778       126  OSM       H7F           -12.0802194439       20.5381974269      -11.7364413246  MEMB      126             0.0000000000
     14779       126  OSM       H7G           -13.1964118995       21.2491630335      -10.4939873933  MEMB      126             0.0000000000
     14780       126  OSM       C8F           -11.1151386306       21.2776479960      -10.0154481047  MEMB      126             0.0000000000
     14781       126  OSM       H8F           -10.1562351416       21.4879311441      -10.5356459366  MEMB      126             0.0000000000
     14782       126  OSM       H8G           -11.1237754254       20.2328006845       -9.6379026630  MEMB      126             0.0000000000
     14783       126  OSM       C9F           -11.4217160673       22.2764648103       -8.9059344226  MEMB      126             0.0000000000
     14784       126  OSM       H9F           -10.7712586689       23.1633561241       -8.9240727159  MEMB      126             0.0000000000
     14785       126  OSM       C10F          -12.2435977404       22.1851263617       -7.8748434932  MEMB      126             0.0000000000
     14786       126  OSM       H10F          -12.4166360464       23.1211812392       -7.3236086854  MEMB      126             0.0000000000
     14787       126  OSM       C11F          -13.1233852045       21.0353061737       -7.4625142283  MEMB      126             0.0000000000
     14788       126  OSM       H11F          -13.0918165589       20.3230864673       -8.3146102399  MEMB      126             0.0000000000
     14789       126  OSM       H11G          -14.1717813979       21.3006865008       -7.2080351326  MEMB      126             0.0000000000
     14790       126  OSM       C12F          -12.5882423172       20.2775202383       -6.2405110003  MEMB      126             0.0000000000
     14791       126  OSM       H12F          -11.4864234175       20.1629640249       -6.3253202904  MEMB      126             0.0000000000
     14792       126  OSM       H12G          -13.0477293765       19.2767681069       -6.0932434912  MEMB      126             0.0000000000
     14793       126  OSM       C13F          -12.8778336249       21.0783643253       -4.9578359507  MEMB      126             0.0000000000
     14794       126  OSM       H13F          -13.9228572878       20.9063034051       -4.6222162738  MEMB      126             0.0000000000
     14795       126  OSM       H13G          -12.8908014730       22.1585450068       -5.2173789689  MEMB      126             0.0000000000
     14796       126  OSM       C14F          -11.9479229685       20.7715140166       -3.8009530302  MEMB      126             0.0000000000
     14797       126  OSM       H14F          -12.2130680521       21.4732451964       -2.9814442641  MEMB      126             0.0000000000
     14798       126  OSM       H14G          -10.9114005092       21.0597266037       -4.0782184992  MEMB      126             0.0000000000
     14799       126  OSM       C15F          -11.9934015167       19.2781735103       -3.3483996992  MEMB      126             0.0000000000
     14800       126  OSM       H15F          -11.7562667327       18.5765598258       -4.1765467096  MEMB      126             0.0000000000
     14801       126  OSM       H15G          -13.0504541673       19.0039515291       -3.1440403784  MEMB      126             0.0000000000
     14802       126  OSM       C16F          -11.1322268775       18.9858141923       -2.1712688749  MEMB      126             0.0000000000
     14803       126  OSM       H16F          -11.2315499716       17.9092804065       -1.9152782674  MEMB      126             0.0000000000
     14804       126  OSM       H16G          -11.3092322261       19.6847416734       -1.3259936393  MEMB      126             0.0000000000
     14805       126  OSM       C17F           -9.6329545712       19.2138614221       -2.4234892504  MEMB      126             0.0000000000
     14806       126  OSM       H17F           -9.5590315185       20.1345808470       -3.0408495021  MEMB      126             0.0000000000
     14807       126  OSM       H17G           -9.2431096275       18.4106697476       -3.0847204682  MEMB      126             0.0000000000
     14808       126  OSM       C18F           -8.9472778666       19.4545856630       -1.1069884721  MEMB      126             0.0000000000
     14809       126  OSM       H18F           -7.8507701909       19.6240441837       -1.1642234191  MEMB      126             0.0000000000
     14810       126  OSM       H18G           -9.1593445601       18.5381193722       -0.5158571435  MEMB      126             0.0000000000
     14811       126  OSM       H18H           -9.4198422068       20.3134451533       -0.5841456854  MEMB      126             0.0000000000
     14812       127  OSM       N             -13.3842315051      -18.3573894539      -21.7226876595  MEMB      127             0.0000000000
     14813       127  OSM       C15           -11.8221628874      -18.3086545639      -21.8534437734  MEMB      127             0.0000000000
     14814       127  OSM       H15A          -11.4532730363      -19.1967906385      -22.3449055043  MEMB      127             0.0000000000
     14815       127  OSM       H15B          -11.4585667749      -18.2261506121      -20.8398407995  MEMB      127             0.0000000000
     14816       127  OSM       H15C          -11.5406205681      -17.3992176913      -22.3634031025  MEMB      127             0.0000000000
     14817       127  OSM       C14           -13.8581348349      -18.5638865247      -23.0618020871  MEMB      127             0.0000000000
     14818       127  OSM       H14A          -13.3545285207      -19.4187100681      -23.4884837733  MEMB      127             0.0000000000
     14819       127  OSM       H14B          -13.8312549174      -17.7487396202      -23.7697660698  MEMB      127             0.0000000000
     14820       127  OSM       H14C          -14.8954388102      -18.8474985404      -22.9619791018  MEMB      127             0.0000000000
     14821       127  OSM       C13           -13.7893213556      -19.6023632282      -20.9658088941  MEMB      127             0.0000000000
     14822       127  OSM       H13A          -13.1773864999      -20.4526918596      -21.2282535695  MEMB      127             0.0000000000
     14823       127  OSM       H13B          -14.7856481965      -19.9058071191      -21.2515617158  MEMB      127             0.0000000000
     14824       127  OSM       H13C          -13.7758237289      -19.3680013209      -19.9116304083  MEMB      127             0.0000000000
     14825       127  OSM       C12           -13.8281710858      -17.1205693486      -21.0028532522  MEMB      127             0.0000000000
     14826       127  OSM       H12A          -13.1317488409      -16.3380672573      -21.2656966633  MEMB      127             0.0000000000
     14827       127  OSM       H12B          -13.6710228081      -17.3290564376      -19.9548849941  MEMB      127             0.0000000000
     14828       127  OSM       C11           -15.3294250949      -16.6424605890      -21.2325570813  MEMB      127             0.0000000000
     14829       127  OSM       H11A          -15.3369054900      -16.2428455016      -22.2691730500  MEMB      127             0.0000000000
     14830       127  OSM       H11B          -15.5229780309      -15.8587539529      -20.4692340041  MEMB      127             0.0000000000
     14831       127  OSM       P             -17.4925959062      -17.7008356301      -20.2536298053  MEMB      127             0.0000000000
     14832       127  OSM       O13           -18.1556532788      -16.3941404842      -20.2236665767  MEMB      127             0.0000000000
     14833       127  OSM       O14           -18.2593027218      -18.9011899239      -20.5840333350  MEMB      127             0.0000000000
     14834       127  OSM       O11           -16.8207152759      -18.0102938053      -18.8603715913  MEMB      127             0.0000000000
     14835       127  OSM       O12           -16.2700742590      -17.6959500503      -21.2391459403  MEMB      127             0.0000000000
     14836       127  OSM       C1S           -17.4187124693      -17.3868090002      -17.7252560139  MEMB      127             0.0000000000
     14837       127  OSM       H1S           -18.4922169799      -17.6433859989      -17.5984610676  MEMB      127             0.0000000000
     14838       127  OSM       H1T           -17.2826975201      -16.3019377277      -17.9224248037  MEMB      127             0.0000000000
     14839       127  OSM       NF            -15.2605157275      -17.6587480241      -16.4939499434  MEMB      127             0.0000000000
     14840       127  OSM       HNF           -14.7565277503      -18.5179438947      -16.5362304424  MEMB      127             0.0000000000
     14841       127  OSM       C2S           -16.7045904383      -17.7466543930      -16.4223972030  MEMB      127             0.0000000000
     14842       127  OSM       H2S           -17.1132134051      -17.0459016967      -15.6632567484  MEMB      127             0.0000000000
     14843       127  OSM       C3S           -17.0562009332      -19.2131646045      -15.9590996545  MEMB      127             0.0000000000
     14844       127  OSM       H3S           -16.8928018266      -19.9411350172      -16.7823133869  MEMB      127             0.0000000000
     14845       127  OSM       O3            -18.4172390262      -19.2668771821      -15.6119872072  MEMB      127             0.0000000000
     14846       127  OSM       HO3           -18.6715728623      -18.4244763541      -15.9957514078  MEMB      127             0.0000000000
     14847       127  OSM       C4S           -16.3122779723      -19.5796991880      -14.7605523532  MEMB      127             0.0000000000
     14848       127  OSM       H4S           -16.4333338701      -18.8728492945      -13.9264606040  MEMB      127             0.0000000000
     14849       127  OSM       C5S           -15.4431223568      -20.6237366002      -14.6185341111  MEMB      127             0.0000000000
     14850       127  OSM       H5S           -15.4793298010      -21.3667556072      -15.4288497956  MEMB      127             0.0000000000
     14851       127  OSM       C6S           -14.6754907699      -21.0933419636      -13.4188837605  MEMB      127             0.0000000000
     14852       127  OSM       H6S           -13.5770230355      -21.0889257293      -13.5852267120  MEMB      127             0.0000000000
     14853       127  OSM       H6T           -14.9638771898      -22.1635587474      -13.3427881581  MEMB      127             0.0000000000
     14854       127  OSM       C7S           -14.8128958169      -20.3350856585      -12.0042853586  MEMB      127             0.0000000000
     14855       127  OSM       H7S           -14.6430019029      -19.2507883907      -12.1767856791  MEMB      127             0.0000000000
     14856       127  OSM       H7T           -14.1711225223      -20.8059239315      -11.2291995099  MEMB      127             0.0000000000
     14857       127  OSM       C8S           -16.2235731105      -20.4190337712      -11.3318394478  MEMB      127             0.0000000000
     14858       127  OSM       H8S           -16.2964946259      -21.3846770316      -10.7872876361  MEMB      127             0.0000000000
     14859       127  OSM       H8T           -17.0090911110      -20.5193644552      -12.1110801131  MEMB      127             0.0000000000
     14860       127  OSM       C9S           -16.5006142182      -19.2569915105      -10.3290138674  MEMB      127             0.0000000000
     14861       127  OSM       H9S           -16.6998718975      -18.3120408873      -10.8782735358  MEMB      127             0.0000000000
     14862       127  OSM       H9T           -15.6418562882      -18.9983733710       -9.6732916425  MEMB      127             0.0000000000
     14863       127  OSM       C10S          -17.7386228429      -19.4374686799       -9.4657080001  MEMB      127             0.0000000000
     14864       127  OSM       H10S          -17.9424623527      -20.4197496630       -8.9883250732  MEMB      127             0.0000000000
     14865       127  OSM       H10T          -18.6374660388      -19.3468132648      -10.1123790299  MEMB      127             0.0000000000
     14866       127  OSM       C11S          -17.7634202336      -18.3951895292       -8.3637023999  MEMB      127             0.0000000000
     14867       127  OSM       H11S          -17.6926275064      -17.3822143747       -8.8144691702  MEMB      127             0.0000000000
     14868       127  OSM       H11T          -16.8765544871      -18.4164922933       -7.6948697376  MEMB      127             0.0000000000
     14869       127  OSM       C12S          -19.0852996268      -18.3280771234       -7.5823242743  MEMB      127             0.0000000000
     14870       127  OSM       H12S          -19.1589402148      -19.2724121600       -7.0016956656  MEMB      127             0.0000000000
     14871       127  OSM       H12T          -20.0127928523      -18.2313471360       -8.1862455133  MEMB      127             0.0000000000
     14872       127  OSM       C13S          -19.0769241154      -17.1491865719       -6.5257140018  MEMB      127             0.0000000000
     14873       127  OSM       H13S          -20.0087861568      -17.2544865449       -5.9300072031  MEMB      127             0.0000000000
     14874       127  OSM       H13T          -19.1239861645      -16.2097643896       -7.1169765133  MEMB      127             0.0000000000
     14875       127  OSM       C14S          -17.9283193644      -17.2008169329       -5.4789163377  MEMB      127             0.0000000000
     14876       127  OSM       H14S          -17.0290923602      -16.6568345249       -5.8391867508  MEMB      127             0.0000000000
     14877       127  OSM       H14T          -17.6502310188      -18.2633996808       -5.3118670628  MEMB      127             0.0000000000
     14878       127  OSM       C15S          -18.3569420398      -16.5886814100       -4.1033845231  MEMB      127             0.0000000000
     14879       127  OSM       H15S          -19.4196814940      -16.7964097775       -3.8548779460  MEMB      127             0.0000000000
     14880       127  OSM       H15T          -18.3085587996      -15.4887600436       -4.2522238295  MEMB      127             0.0000000000
     14881       127  OSM       C16S          -17.5069646409      -17.1285041290       -2.9835740871  MEMB      127             0.0000000000
     14882       127  OSM       H16S          -17.5195254135      -18.2233726705       -2.7953565232  MEMB      127             0.0000000000
     14883       127  OSM       H16T          -17.8936708996      -16.6600472681       -2.0533442746  MEMB      127             0.0000000000
     14884       127  OSM       C17S          -15.9706403492      -16.8204768938       -3.1975655663  MEMB      127             0.0000000000
     14885       127  OSM       H17S          -15.9839409123      -15.7382235518       -3.4483079992  MEMB      127             0.0000000000
     14886       127  OSM       H17T          -15.4343942009      -17.2803358381       -4.0550568616  MEMB      127             0.0000000000
     14887       127  OSM       C18S          -15.0361007288      -17.0135118447       -1.9736775737  MEMB      127             0.0000000000
     14888       127  OSM       H18S          -15.6277751322      -16.9701295654       -1.0343364905  MEMB      127             0.0000000000
     14889       127  OSM       H18T          -14.2382332622      -16.2421638679       -1.9212274596  MEMB      127             0.0000000000
     14890       127  OSM       H18U          -14.5601354534      -18.0173724809       -1.9801610043  MEMB      127             0.0000000000
     14891       127  OSM       C1F           -14.6030077153      -16.5460691801      -16.6321771440  MEMB      127             0.0000000000
     14892       127  OSM       OF            -15.1323027271      -15.4327804546      -16.4951328908  MEMB      127             0.0000000000
     14893       127  OSM       C2F           -13.1265864550      -16.6688980307      -16.8065004941  MEMB      127             0.0000000000
     14894       127  OSM       H2F           -12.8101167969      -16.4949651861      -17.8571743232  MEMB      127             0.0000000000
     14895       127  OSM       H2G           -12.9214874571      -17.7455404262      -16.6245755626  MEMB      127             0.0000000000
     14896       127  OSM       C3F           -12.2640320046      -15.8416222631      -15.8231763448  MEMB      127             0.0000000000
     14897       127  OSM       H3F           -12.6339120704      -14.8164016491      -15.6076947112  MEMB      127             0.0000000000
     14898       127  OSM       H3G           -11.3386219606      -15.7909484116      -16.4358507441  MEMB      127             0.0000000000
     14899       127  OSM       C4F           -11.9400281564      -16.5089965125      -14.5164870841  MEMB      127             0.0000000000
     14900       127  OSM       H4F           -11.2165209456      -15.8661028716      -13.9710090767  MEMB      127             0.0000000000
     14901       127  OSM       H4G           -11.6175755263      -17.5143087049      -14.8624534633  MEMB      127             0.0000000000
     14902       127  OSM       C5F           -13.1991750313      -16.7140048843      -13.6221821951  MEMB      127             0.0000000000
     14903       127  OSM       H5F           -12.9999592021      -17.2279712592      -12.6575723728  MEMB      127             0.0000000000
     14904       127  OSM       H5G           -13.9306400316      -17.3744217786      -14.1351440388  MEMB      127             0.0000000000
     14905       127  OSM       C6F           -13.8372789555      -15.4385034739      -13.1048657028  MEMB      127             0.0000000000
     14906       127  OSM       H6F           -13.9069817539      -14.6589299234      -13.8933630794  MEMB      127             0.0000000000
     14907       127  OSM       H6G           -13.1586281752      -15.1236649926      -12.2835069278  MEMB      127             0.0000000000
     14908       127  OSM       C7F           -15.2149460320      -15.7002324928      -12.4358251248  MEMB      127             0.0000000000
     14909       127  OSM       H7F           -15.1628502368      -16.8049357145      -12.3298171190  MEMB      127             0.0000000000
     14910       127  OSM       H7G           -15.9706356428      -15.5093592166      -13.2275460365  MEMB      127             0.0000000000
     14911       127  OSM       C8F           -15.5961729053      -15.0081175273      -11.1358701424  MEMB      127             0.0000000000
     14912       127  OSM       H8F           -16.2029052479      -15.7069773440      -10.5212221079  MEMB      127             0.0000000000
     14913       127  OSM       H8G           -16.2085067350      -14.1534468542      -11.4949050565  MEMB      127             0.0000000000
     14914       127  OSM       C9F           -14.4610008717      -14.4407611160      -10.2836844787  MEMB      127             0.0000000000
     14915       127  OSM       H9F           -14.0812515819      -13.4865195060      -10.6776556085  MEMB      127             0.0000000000
     14916       127  OSM       C10F          -13.9374405337      -15.0097816033       -9.1274813999  MEMB      127             0.0000000000
     14917       127  OSM       H10F          -13.1942548604      -14.4613545154       -8.5300686075  MEMB      127             0.0000000000
     14918       127  OSM       C11F          -14.4229953939      -16.3264385460       -8.5769572371  MEMB      127             0.0000000000
     14919       127  OSM       H11F          -14.1520505573      -17.0908680339       -9.3362705134  MEMB      127             0.0000000000
     14920       127  OSM       H11G          -15.5068561111      -16.2320800506       -8.3518714473  MEMB      127             0.0000000000
     14921       127  OSM       C12F          -13.5976498396      -16.8110331720       -7.3712523414  MEMB      127             0.0000000000
     14922       127  OSM       H12F          -13.5221296446      -16.0002893247       -6.6154005297  MEMB      127             0.0000000000
     14923       127  OSM       H12G          -12.5865050723      -16.9809638567       -7.7990737973  MEMB      127             0.0000000000
     14924       127  OSM       C13F          -14.2635985556      -18.0424537658       -6.8082595310  MEMB      127             0.0000000000
     14925       127  OSM       H13F          -14.6957674886      -18.7055619876       -7.5878992334  MEMB      127             0.0000000000
     14926       127  OSM       H13G          -15.0365979530      -17.7752582262       -6.0563283808  MEMB      127             0.0000000000
     14927       127  OSM       C14F          -13.3166251616      -18.7539718490       -5.7822951130  MEMB      127             0.0000000000
     14928       127  OSM       H14F          -12.9499753850      -17.9173750449       -5.1498437867  MEMB      127             0.0000000000
     14929       127  OSM       H14G          -12.4908260035      -19.2536986199       -6.3324315997  MEMB      127             0.0000000000
     14930       127  OSM       C15F          -14.0078840715      -19.8748873378       -4.9813204592  MEMB      127             0.0000000000
     14931       127  OSM       H15F          -14.2644805567      -20.8010692315       -5.5386953084  MEMB      127             0.0000000000
     14932       127  OSM       H15G          -15.0284717614      -19.4928302277       -4.7650934291  MEMB      127             0.0000000000
     14933       127  OSM       C16F          -13.2813970948      -20.0736347862       -3.6616477370  MEMB      127             0.0000000000
     14934       127  OSM       H16F          -14.0223500660      -20.5491917614       -2.9840380252  MEMB      127             0.0000000000
     14935       127  OSM       H16G          -12.9546500336      -19.0480150824       -3.3865810652  MEMB      127             0.0000000000
     14936       127  OSM       C17F          -11.9878640243      -20.9236882181       -3.7160569790  MEMB      127             0.0000000000
     14937       127  OSM       H17F          -11.5274667440      -20.7342571859       -4.7092691380  MEMB      127             0.0000000000
     14938       127  OSM       H17G          -12.2218863131      -22.0097581838       -3.7134560186  MEMB      127             0.0000000000
     14939       127  OSM       C18F          -10.9350828271      -20.5882564044       -2.6333426582  MEMB      127             0.0000000000
     14940       127  OSM       H18F          -11.3146473128      -20.9583415242       -1.6569772807  MEMB      127             0.0000000000
     14941       127  OSM       H18G          -10.7564907133      -19.4941538650       -2.7065912879  MEMB      127             0.0000000000
     14942       127  OSM       H18H           -9.9541762941      -21.0527354888       -2.8708355669  MEMB      127             0.0000000000
     14943       128  POPC      N               0.8340145634       23.9161946421      -20.4859250698  MEMB      128             0.0000000000
     14944       128  POPC      C12             0.1213501758       24.9499729214      -19.7056539291  MEMB      128             0.0000000000
     14945       128  POPC      H12A           -0.1473498510       25.8180409191      -20.2893133222  MEMB      128             0.0000000000
     14946       128  POPC      H12B            0.7786090920       25.3593845951      -18.9527975253  MEMB      128             0.0000000000
     14947       128  POPC      C13             1.1519131350       22.7629558170      -19.6058909050  MEMB      128             0.0000000000
     14948       128  POPC      H13A            1.8483854310       23.1560474032      -18.8800772400  MEMB      128             0.0000000000
     14949       128  POPC      H13B            0.2307983705       22.4739444041      -19.1217215989  MEMB      128             0.0000000000
     14950       128  POPC      H13C            1.6925592132       21.9497865916      -20.0672559409  MEMB      128             0.0000000000
     14951       128  POPC      C14            -0.0128779931       23.4472741174      -21.6449362087  MEMB      128             0.0000000000
     14952       128  POPC      H14A            0.5616530476       22.7078259442      -22.1830165000  MEMB      128             0.0000000000
     14953       128  POPC      H14B           -0.9250165155       23.0412657849      -21.2331590569  MEMB      128             0.0000000000
     14954       128  POPC      H14C           -0.1096418915       24.3339594204      -22.2538911248  MEMB      128             0.0000000000
     14955       128  POPC      C15             2.0786286762       24.5970914735      -21.0923548767  MEMB      128             0.0000000000
     14956       128  POPC      H15A            2.5905621663       23.8989251758      -21.7380233864  MEMB      128             0.0000000000
     14957       128  POPC      H15B            2.7045395652       24.9212295814      -20.2740823770  MEMB      128             0.0000000000
     14958       128  POPC      H15C            1.8039428188       25.4367998258      -21.7135130318  MEMB      128             0.0000000000
     14959       128  POPC      C11            -1.2710225823       24.6833799719      -19.0755096084  MEMB      128             0.0000000000
     14960       128  POPC      H11A           -2.0819384756       24.4216452438      -19.7884130343  MEMB      128             0.0000000000
     14961       128  POPC      H11B           -1.6617737634       25.6048592015      -18.5933160121  MEMB      128             0.0000000000
     14962       128  POPC      P              -2.5741657538       23.2407578406      -17.4940282803  MEMB      128             0.0000000000
     14963       128  POPC      O13            -3.4588340698       22.6127545728      -18.5287229054  MEMB      128             0.0000000000
     14964       128  POPC      O14            -3.0816050911       24.4084683136      -16.8367111364  MEMB      128             0.0000000000
     14965       128  POPC      O12            -1.1887886733       23.6932214983      -18.1197861307  MEMB      128             0.0000000000
     14966       128  POPC      O11            -2.2365383542       22.1251828356      -16.4104809534  MEMB      128             0.0000000000
     14967       128  POPC      C1             -1.1005348722       21.2643803882      -16.5756454569  MEMB      128             0.0000000000
     14968       128  POPC      HA             -0.5371901046       21.5548454903      -17.4881113064  MEMB      128             0.0000000000
     14969       128  POPC      HB             -1.3906335133       20.1922359268      -16.6015253545  MEMB      128             0.0000000000
     14970       128  POPC      C2             -0.1895694583       21.3515485258      -15.3664863469  MEMB      128             0.0000000000
     14971       128  POPC      HS              0.6298147064       20.6168230310      -15.5185032476  MEMB      128             0.0000000000
     14972       128  POPC      O21            -0.8825765018       21.0259202285      -14.1880405528  MEMB      128             0.0000000000
     14973       128  POPC      C21            -0.1571915453       20.7937019937      -13.0666884661  MEMB      128             0.0000000000
     14974       128  POPC      O22             1.0384148503       20.8829235199      -12.9546954054  MEMB      128             0.0000000000
     14975       128  POPC      C22            -1.0566484874       20.4181396909      -11.9279805396  MEMB      128             0.0000000000
     14976       128  POPC      H2R            -1.2026926639       19.3175692087      -11.8863116579  MEMB      128             0.0000000000
     14977       128  POPC      H2S            -1.9558037082       21.0552740186      -11.7869102811  MEMB      128             0.0000000000
     14978       128  POPC      C3              0.3328081038       22.7939138527      -15.2573232568  MEMB      128             0.0000000000
     14979       128  POPC      HX              0.5824835077       23.3359675328      -16.1944257161  MEMB      128             0.0000000000
     14980       128  POPC      HY              1.3047731494       22.7025412400      -14.7269874255  MEMB      128             0.0000000000
     14981       128  POPC      O31            -0.6094797276       23.6093899825      -14.4600057567  MEMB      128             0.0000000000
     14982       128  POPC      C31            -0.2496082500       24.8826489159      -14.1839807098  MEMB      128             0.0000000000
     14983       128  POPC      O32             0.8158838458       25.3437162723      -14.5153839881  MEMB      128             0.0000000000
     14984       128  POPC      C32            -1.3185012280       25.7297862353      -13.5104395820  MEMB      128             0.0000000000
     14985       128  POPC      H2X            -1.7579745020       26.3930155118      -14.2858821072  MEMB      128             0.0000000000
     14986       128  POPC      H2Y            -0.8706817246       26.4080849270      -12.7530164208  MEMB      128             0.0000000000
     14987       128  POPC      C23            -0.2874997218       20.5117466480      -10.5729474162  MEMB      128             0.0000000000
     14988       128  POPC      H3R             0.6769533576       19.9796516620      -10.7179519413  MEMB      128             0.0000000000
     14989       128  POPC      H3S            -0.8487191675       19.9147348581       -9.8226605429  MEMB      128             0.0000000000
     14990       128  POPC      C24            -0.2238587708       21.9142007026       -9.9365690648  MEMB      128             0.0000000000
     14991       128  POPC      H4R            -0.0118896988       21.6228781395       -8.8856068781  MEMB      128             0.0000000000
     14992       128  POPC      H4S            -1.1911915762       22.4500711597       -9.8296515521  MEMB      128             0.0000000000
     14993       128  POPC      C25             0.8531044549       22.8571274453      -10.3985469900  MEMB      128             0.0000000000
     14994       128  POPC      H5R             0.5590775781       23.2645284533      -11.3894523473  MEMB      128             0.0000000000
     14995       128  POPC      H5S             1.8312152955       22.3568142656      -10.5637952086  MEMB      128             0.0000000000
     14996       128  POPC      C26             1.0378469062       24.1211018009       -9.5232860586  MEMB      128             0.0000000000
     14997       128  POPC      H6R             1.9748492906       24.5890882106       -9.8938748935  MEMB      128             0.0000000000
     14998       128  POPC      H6S             1.2553101894       23.9017768856       -8.4560813071  MEMB      128             0.0000000000
     14999       128  POPC      C27            -0.0870765130       25.1426448964       -9.6694057002  MEMB      128             0.0000000000
     15000       128  POPC      H7R            -1.1321794101       24.7677321294       -9.6304009080  MEMB      128             0.0000000000
     15001       128  POPC      H7S             0.0091523316       25.5253999588      -10.7079432384  MEMB      128             0.0000000000
     15002       128  POPC      C28             0.0976663889       26.2952367502       -8.6946919321  MEMB      128             0.0000000000
     15003       128  POPC      H8R             1.1203855751       26.6541877332       -8.9386604702  MEMB      128             0.0000000000
     15004       128  POPC      H8S             0.0382192971       25.9012259076       -7.6576083444  MEMB      128             0.0000000000
     15005       128  POPC      C29            -0.8624792094       27.4530930876       -8.9395307301  MEMB      128             0.0000000000
     15006       128  POPC      H91            -0.6080495336       27.9169195706       -9.9039638311  MEMB      128             0.0000000000
     15007       128  POPC      C210           -1.8280984097       27.9344535323       -8.1849590858  MEMB      128             0.0000000000
     15008       128  POPC      H101           -2.3813899469       28.8326004828       -8.4967289573  MEMB      128             0.0000000000
     15009       128  POPC      C211           -2.3347069507       27.5495644409       -6.8175399118  MEMB      128             0.0000000000
     15010       128  POPC      H11R           -1.8840780938       26.5899031629       -6.4854186654  MEMB      128             0.0000000000
     15011       128  POPC      H11S           -3.4446433377       27.5973701533       -6.8087230081  MEMB      128             0.0000000000
     15012       128  POPC      C212           -1.9641056487       28.5937079475       -5.8207344669  MEMB      128             0.0000000000
     15013       128  POPC      H12R           -2.5594590744       29.5272772210       -5.9119711745  MEMB      128             0.0000000000
     15014       128  POPC      H12S           -0.9329872906       28.9595892217       -6.0137292092  MEMB      128             0.0000000000
     15015       128  POPC      C213           -2.1184541969       28.0706172802       -4.3625420064  MEMB      128             0.0000000000
     15016       128  POPC      H13R           -2.9161920304       27.2983126480       -4.3240615340  MEMB      128             0.0000000000
     15017       128  POPC      H13S           -2.4567924499       28.8710617374       -3.6703449298  MEMB      128             0.0000000000
     15018       128  POPC      C214           -0.8502924123       27.4745799692       -3.6262850027  MEMB      128             0.0000000000
     15019       128  POPC      H14R           -0.2204347030       28.3143132093       -3.2623507061  MEMB      128             0.0000000000
     15020       128  POPC      H14S           -0.2001953857       26.7714441438       -4.1895745512  MEMB      128             0.0000000000
     15021       128  POPC      C215           -1.2282209923       26.6595507883       -2.3428120811  MEMB      128             0.0000000000
     15022       128  POPC      H15R           -2.0196157620       27.2648021605       -1.8511963515  MEMB      128             0.0000000000
     15023       128  POPC      H15S           -0.2849952327       26.5478141482       -1.7664796863  MEMB      128             0.0000000000
     15024       128  POPC      C216           -1.7303547988       25.1796058245       -2.5526795266  MEMB      128             0.0000000000
     15025       128  POPC      H16R           -0.9467529004       24.5891413036       -3.0738717500  MEMB      128             0.0000000000
     15026       128  POPC      H16S           -2.6056424362       25.2711804318       -3.2307708696  MEMB      128             0.0000000000
     15027       128  POPC      C217           -2.0288181551       24.5140180138       -1.2866565162  MEMB      128             0.0000000000
     15028       128  POPC      H17R           -1.1118040275       24.4990226579       -0.6596149075  MEMB      128             0.0000000000
     15029       128  POPC      H17S           -2.3652315817       23.4592850031       -1.3798527740  MEMB      128             0.0000000000
     15030       128  POPC      C218           -3.2455872901       25.0693304998       -0.5450649628  MEMB      128             0.0000000000
     15031       128  POPC      H18R           -3.2237917947       26.0723631434       -0.0678099647  MEMB      128             0.0000000000
     15032       128  POPC      H18S           -3.4467368356       24.4194710726        0.3333114758  MEMB      128             0.0000000000
     15033       128  POPC      H18T           -4.0765661471       25.0568799685       -1.2823843183  MEMB      128             0.0000000000
     15034       128  POPC      C33            -2.5512057047       24.9221898745      -12.9898583094  MEMB      128             0.0000000000
     15035       128  POPC      H3X            -2.0481453099       24.2761065224      -12.2389736925  MEMB      128             0.0000000000
     15036       128  POPC      H3Y            -3.0433752765       24.4499513552      -13.8668308981  MEMB      128             0.0000000000
     15037       128  POPC      C34            -3.4860645402       25.8644222605      -12.2156502832  MEMB      128             0.0000000000
     15038       128  POPC      H4X            -4.0348664817       26.5384767787      -12.9075950571  MEMB      128             0.0000000000
     15039       128  POPC      H4Y            -2.8086857692       26.5320862411      -11.6414522107  MEMB      128             0.0000000000
     15040       128  POPC      C35            -4.4980107439       25.1857618968      -11.2923354661  MEMB      128             0.0000000000
     15041       128  POPC      H5X            -5.1405714922       24.5977480964      -11.9820280105  MEMB      128             0.0000000000
     15042       128  POPC      H5Y            -5.1503055938       25.9358048976      -10.7960817451  MEMB      128             0.0000000000
     15043       128  POPC      C36            -3.9011397053       24.2599889663      -10.2648135265  MEMB      128             0.0000000000
     15044       128  POPC      H6X            -3.1252470961       24.8400701748       -9.7209227170  MEMB      128             0.0000000000
     15045       128  POPC      H6Y            -3.4377594137       23.4301996293      -10.8401831516  MEMB      128             0.0000000000
     15046       128  POPC      C37            -4.7800135815       23.5804351844       -9.2463724048  MEMB      128             0.0000000000
     15047       128  POPC      H7X            -5.6279847018       23.1478869131       -9.8192313747  MEMB      128             0.0000000000
     15048       128  POPC      H7Y            -5.2710269355       24.2666697304       -8.5236633673  MEMB      128             0.0000000000
     15049       128  POPC      C38            -4.0495158855       22.5517021250       -8.3706919514  MEMB      128             0.0000000000
     15050       128  POPC      H8X            -3.5657404415       21.6807634166       -8.8623708497  MEMB      128             0.0000000000
     15051       128  POPC      H8Y            -4.8407965248       22.0882711781       -7.7434534399  MEMB      128             0.0000000000
     15052       128  POPC      C39            -3.1520027831       23.1012667295       -7.2793626633  MEMB      128             0.0000000000
     15053       128  POPC      H9X            -3.6614153741       23.9808985122       -6.8309572521  MEMB      128             0.0000000000
     15054       128  POPC      H9Y            -2.1969403555       23.5003549790       -7.6829783543  MEMB      128             0.0000000000
     15055       128  POPC      C310           -2.8119228499       22.0598276908       -6.1269453356  MEMB      128             0.0000000000
     15056       128  POPC      H10X           -3.8078732417       21.6762697340       -5.8182582961  MEMB      128             0.0000000000
     15057       128  POPC      H10Y           -2.4190753226       22.5088403831       -5.1897259542  MEMB      128             0.0000000000
     15058       128  POPC      C311           -1.8988295399       20.9458301379       -6.6481903144  MEMB      128             0.0000000000
     15059       128  POPC      H11X           -0.8476306526       21.2353920091       -6.8613941037  MEMB      128             0.0000000000
     15060       128  POPC      H11Y           -2.2907109260       20.7623068081       -7.6714537594  MEMB      128             0.0000000000
     15061       128  POPC      C312           -2.0072967330       19.6680771725       -5.8905867590  MEMB      128             0.0000000000
     15062       128  POPC      H12X           -1.4654993405       18.8718971667       -6.4445483017  MEMB      128             0.0000000000
     15063       128  POPC      H12Y           -3.0752407344       19.3814512363       -5.7825958726  MEMB      128             0.0000000000
     15064       128  POPC      C313           -1.5528017499       19.8574797993       -4.4387282728  MEMB      128             0.0000000000
     15065       128  POPC      H13X           -1.9166800513       18.9707009390       -3.8770018512  MEMB      128             0.0000000000
     15066       128  POPC      H13Y           -1.9930538494       20.7541697487       -3.9524717139  MEMB      128             0.0000000000
     15067       128  POPC      C314            0.0285860894       19.8017407112       -4.2749874524  MEMB      128             0.0000000000
     15068       128  POPC      H14X            0.4371325518       20.6057686933       -4.9237938621  MEMB      128             0.0000000000
     15069       128  POPC      H14Y            0.4897171044       18.8390605068       -4.5830884932  MEMB      128             0.0000000000
     15070       128  POPC      C315            0.4962770914       20.2880452890       -2.8328816234  MEMB      128             0.0000000000
     15071       128  POPC      H15X           -0.1772702060       21.1276670691       -2.5577637331  MEMB      128             0.0000000000
     15072       128  POPC      H15Y            1.4508790574       20.7861373698       -3.1066699199  MEMB      128             0.0000000000
     15073       128  POPC      C316            0.6640970229       19.2988255192       -1.6538756504  MEMB      128             0.0000000000
     15074       128  POPC      H16X            1.4824922301       18.5663498286       -1.8212962848  MEMB      128             0.0000000000
     15075       128  POPC      H16Y           -0.2603467715       18.7429283804       -1.3879744580  MEMB      128             0.0000000000
     15076       128  POPC      H16Z            1.0420531204       19.8938973881       -0.7951797356  MEMB      128             0.0000000000
     15077       129  SAPS      N              21.2733601975      -14.0010698339      -21.8955757458  MEMB      129             0.0000000000
     15078       129  SAPS      HN1            21.4065623406      -14.6819923481      -22.6703026685  MEMB      129             0.0000000000
     15079       129  SAPS      HN2            21.5488689374      -13.0237323336      -22.1203121016  MEMB      129             0.0000000000
     15080       129  SAPS      HN3            21.8408598788      -14.2379386081      -21.0568640927  MEMB      129             0.0000000000
     15081       129  SAPS      C12            19.9109055042      -14.0310371438      -21.2649454041  MEMB      129             0.0000000000
     15082       129  SAPS      H12A           19.3536792044      -13.1886163420      -21.6473405312  MEMB      129             0.0000000000
     15083       129  SAPS      C13            19.1349543168      -15.3536228517      -21.4577430853  MEMB      129             0.0000000000
     15084       129  SAPS      O13A           19.7092672698      -16.3890819374      -22.0032317915  MEMB      129             0.0000000000
     15085       129  SAPS      O13B           18.0654622612      -15.3785031320      -20.8634344562  MEMB      129             0.0000000000
     15086       129  SAPS      C11            20.2525278121      -13.8759595649      -19.7224164672  MEMB      129             0.0000000000
     15087       129  SAPS      H11A           21.0428520414      -14.5965969544      -19.4217663782  MEMB      129             0.0000000000
     15088       129  SAPS      H11B           19.3775159562      -14.1370819405      -19.0895733942  MEMB      129             0.0000000000
     15089       129  SAPS      P              19.9330004660      -11.4956814832      -18.5907132303  MEMB      129             0.0000000000
     15090       129  SAPS      O13            20.7433480664      -10.4162723829      -18.1281681368  MEMB      129             0.0000000000
     15091       129  SAPS      O14            18.7051550981      -11.1459005211      -19.3833591974  MEMB      129             0.0000000000
     15092       129  SAPS      O12            20.7902467742      -12.5933080105      -19.4011809084  MEMB      129             0.0000000000
     15093       129  SAPS      O11            19.4207198365      -12.3046519410      -17.2892315802  MEMB      129             0.0000000000
     15094       129  SAPS      C1             20.4982049590      -12.8153375897      -16.4925153519  MEMB      129             0.0000000000
     15095       129  SAPS      HA             21.0291546879      -13.4894016201      -17.1982428109  MEMB      129             0.0000000000
     15096       129  SAPS      HB             21.1343893935      -11.9767330959      -16.1370820803  MEMB      129             0.0000000000
     15097       129  SAPS      C2             19.8723630549      -13.7250207349      -15.3102844119  MEMB      129             0.0000000000
     15098       129  SAPS      HS             19.1858306827      -14.4051257389      -15.8584190553  MEMB      129             0.0000000000
     15099       129  SAPS      O21            19.1656405982      -12.9019651669      -14.3496920191  MEMB      129             0.0000000000
     15100       129  SAPS      C21            18.2192341708      -13.5234801229      -13.5867134235  MEMB      129             0.0000000000
     15101       129  SAPS      O22            17.9479092127      -14.7474770597      -13.6552385475  MEMB      129             0.0000000000
     15102       129  SAPS      C22            17.5322356837      -12.5530758711      -12.6585715669  MEMB      129             0.0000000000
     15103       129  SAPS      H2R            17.5284014222      -13.0403871623      -11.6601559282  MEMB      129             0.0000000000
     15104       129  SAPS      H2S            18.1469618446      -11.6406054178      -12.5042008906  MEMB      129             0.0000000000
     15105       129  SAPS      C3             20.9996754715      -14.5288441484      -14.6981538004  MEMB      129             0.0000000000
     15106       129  SAPS      HX             21.5266786513      -15.2688467252      -15.3376731558  MEMB      129             0.0000000000
     15107       129  SAPS      HY             20.4573345192      -15.1450761826      -13.9495247891  MEMB      129             0.0000000000
     15108       129  SAPS      O31            21.9454138108      -13.6156612294      -14.1538561901  MEMB      129             0.0000000000
     15109       129  SAPS      C31            22.1841072101      -13.7374797277      -12.8526554889  MEMB      129             0.0000000000
     15110       129  SAPS      O32            22.2229481036      -14.7415219090      -12.2175278372  MEMB      129             0.0000000000
     15111       129  SAPS      C32            22.5876960568      -12.3104304783      -12.4044881377  MEMB      129             0.0000000000
     15112       129  SAPS      H2X            23.1139579217      -11.8316518300      -13.2577994873  MEMB      129             0.0000000000
     15113       129  SAPS      H2Y            23.2924625332      -12.2636151550      -11.5469133603  MEMB      129             0.0000000000
     15114       129  SAPS      C23            16.0914891106      -12.2023528766      -13.1382853561  MEMB      129             0.0000000000
     15115       129  SAPS      H3R            15.5126966401      -13.1485740773      -13.2014189053  MEMB      129             0.0000000000
     15116       129  SAPS      H3S            16.0451516511      -11.8541362044      -14.1922867595  MEMB      129             0.0000000000
     15117       129  SAPS      C24            15.5168640949      -11.2057386266      -12.1635780790  MEMB      129             0.0000000000
     15118       129  SAPS      H4R            15.5301058910      -11.5905280960      -11.1214245873  MEMB      129             0.0000000000
     15119       129  SAPS      H4S            14.4726407489      -11.1400640678      -12.5372167228  MEMB      129             0.0000000000
     15120       129  SAPS      C25            16.2835596846       -9.8846317968      -12.1753878580  MEMB      129             0.0000000000
     15121       129  SAPS      H5R            16.4407903312       -9.4528303508      -13.1748010965  MEMB      129             0.0000000000
     15122       129  SAPS      C26            16.7929457377       -9.3125843252      -11.0636386953  MEMB      129             0.0000000000
     15123       129  SAPS      H6R            17.2391196200       -8.3276830139      -11.2658720555  MEMB      129             0.0000000000
     15124       129  SAPS      C27            16.7392396275       -9.6357027904       -9.5979034182  MEMB      129             0.0000000000
     15125       129  SAPS      H7R            15.9595944727      -10.3057526042       -9.1765869416  MEMB      129             0.0000000000
     15126       129  SAPS      H7S            16.4473307328       -8.6532792819       -9.1690043015  MEMB      129             0.0000000000
     15127       129  SAPS      C28            18.0634396279       -9.9916054895       -9.0246251535  MEMB      129             0.0000000000
     15128       129  SAPS      H8R            19.0309012610       -9.9854048978       -9.5480555180  MEMB      129             0.0000000000
     15129       129  SAPS      C29            18.1229424397      -10.3908883241       -7.7714717840  MEMB      129             0.0000000000
     15130       129  SAPS      H9R            19.1529193735      -10.4467360449       -7.3893352649  MEMB      129             0.0000000000
     15131       129  SAPS      C210           17.0599534596      -10.6295910584       -6.7835602793  MEMB      129             0.0000000000
     15132       129  SAPS      H10R           17.2123927749      -11.6822968336       -6.4627897422  MEMB      129             0.0000000000
     15133       129  SAPS      H10S           16.0102569664      -10.5431118589       -7.1370849484  MEMB      129             0.0000000000
     15134       129  SAPS      C211           17.3821597483       -9.7744011161       -5.5345022813  MEMB      129             0.0000000000
     15135       129  SAPS      H11R           18.1413537801       -8.9932383121       -5.6875029290  MEMB      129             0.0000000000
     15136       129  SAPS      C212           16.8163139590       -9.9139898930       -4.3486726827  MEMB      129             0.0000000000
     15137       129  SAPS      H12R           17.0910631931       -9.2279485289       -3.5338956303  MEMB      129             0.0000000000
     15138       129  SAPS      C213           15.7822303895      -10.9672689582       -4.0977155382  MEMB      129             0.0000000000
     15139       129  SAPS      H13R           16.2859162424      -11.9509398442       -3.9836411042  MEMB      129             0.0000000000
     15140       129  SAPS      H13S           15.1511040661      -11.1041739122       -5.0017389116  MEMB      129             0.0000000000
     15141       129  SAPS      C214           14.9334876425      -10.5536768444       -2.8383173247  MEMB      129             0.0000000000
     15142       129  SAPS      H14R           14.4827972075       -9.5518063301       -2.7823332223  MEMB      129             0.0000000000
     15143       129  SAPS      C215           14.4230137548      -11.3685012146       -1.8907532288  MEMB      129             0.0000000000
     15144       129  SAPS      H15R           13.8221000967      -10.8690482990       -1.1165122344  MEMB      129             0.0000000000
     15145       129  SAPS      C216           14.5076096346      -12.8888480002       -1.7580033698  MEMB      129             0.0000000000
     15146       129  SAPS      H16R           14.4534484067      -13.4029249857       -2.7414215249  MEMB      129             0.0000000000
     15147       129  SAPS      H16S           13.5859760740      -13.3192688229       -1.3111796409  MEMB      129             0.0000000000
     15148       129  SAPS      C217           15.7702920241      -13.3777555130       -1.0337001385  MEMB      129             0.0000000000
     15149       129  SAPS      H17R           15.8093260935      -13.0523953319        0.0278736726  MEMB      129             0.0000000000
     15150       129  SAPS      H17S           16.6231029798      -12.9220760860       -1.5808667470  MEMB      129             0.0000000000
     15151       129  SAPS      C218           15.8943301632      -14.9187954340       -1.0286850913  MEMB      129             0.0000000000
     15152       129  SAPS      H18R           16.2582657511      -15.2602771712       -2.0212895646  MEMB      129             0.0000000000
     15153       129  SAPS      H18S           14.8771633959      -15.3325588298       -0.8598885341  MEMB      129             0.0000000000
     15154       129  SAPS      C219           16.7907125818      -15.4793672322        0.0719001317  MEMB      129             0.0000000000
     15155       129  SAPS      H19R           17.7227450135      -14.8834690919        0.1745735512  MEMB      129             0.0000000000
     15156       129  SAPS      H19S           17.1592999927      -16.5119966176       -0.1073801596  MEMB      129             0.0000000000
     15157       129  SAPS      C220           16.3180440330      -15.4356846044        1.4913877887  MEMB      129             0.0000000000
     15158       129  SAPS      H20R           16.5441715033      -14.4361592367        1.9204995079  MEMB      129             0.0000000000
     15159       129  SAPS      H20S           16.7761099206      -16.0909231919        2.2628524142  MEMB      129             0.0000000000
     15160       129  SAPS      H20T           15.2525757124      -15.7503599927        1.5001944784  MEMB      129             0.0000000000
     15161       129  SAPS      C33            21.2988561443      -11.5411718931      -12.1466263228  MEMB      129             0.0000000000
     15162       129  SAPS      H3X            20.8791611920      -11.9645256910      -11.2091042137  MEMB      129             0.0000000000
     15163       129  SAPS      H3Y            20.6241337595      -11.4051539529      -13.0187330805  MEMB      129             0.0000000000
     15164       129  SAPS      C34            21.6153529636      -10.0533145717      -11.6538260679  MEMB      129             0.0000000000
     15165       129  SAPS      H4X            20.5957484751       -9.7002905502      -11.3890596989  MEMB      129             0.0000000000
     15166       129  SAPS      H4Y            22.1809397668       -9.5607652574      -12.4734771919  MEMB      129             0.0000000000
     15167       129  SAPS      C35            22.6227839061       -9.9876324546      -10.4683292023  MEMB      129             0.0000000000
     15168       129  SAPS      H5X            22.8934807851       -8.9137426278      -10.3799870292  MEMB      129             0.0000000000
     15169       129  SAPS      H5Y            23.5271614291      -10.6221184825      -10.5860136773  MEMB      129             0.0000000000
     15170       129  SAPS      C36            22.1011083039      -10.4042536225       -9.1029120223  MEMB      129             0.0000000000
     15171       129  SAPS      H6X            21.7544302122      -11.4565782355       -9.1850622943  MEMB      129             0.0000000000
     15172       129  SAPS      H6Y            21.1163527812       -9.9497872738       -8.8620019117  MEMB      129             0.0000000000
     15173       129  SAPS      C37            22.9384329415      -10.3633481389       -7.8265782318  MEMB      129             0.0000000000
     15174       129  SAPS      H7X            23.2576515660       -9.3287719312       -7.5774361063  MEMB      129             0.0000000000
     15175       129  SAPS      H7Y            23.9382665938      -10.7826028136       -8.0692290015  MEMB      129             0.0000000000
     15176       129  SAPS      C38            22.3263636343      -10.9222503526       -6.5297813782  MEMB      129             0.0000000000
     15177       129  SAPS      H8X            21.3508970962      -10.4267314020       -6.3367863278  MEMB      129             0.0000000000
     15178       129  SAPS      H8Y            22.8949294050      -10.5239266111       -5.6623762973  MEMB      129             0.0000000000
     15179       129  SAPS      C39            22.0504674896      -12.4576580071       -6.5390483693  MEMB      129             0.0000000000
     15180       129  SAPS      H9X            22.8320983187      -13.0122784902       -7.1009829609  MEMB      129             0.0000000000
     15181       129  SAPS      H9Y            21.2122647960      -12.6116844902       -7.2517989555  MEMB      129             0.0000000000
     15182       129  SAPS      C310           21.8650152793      -13.0978891269       -5.1295019979  MEMB      129             0.0000000000
     15183       129  SAPS      H10X           22.7638432431      -12.7108010681       -4.6035814522  MEMB      129             0.0000000000
     15184       129  SAPS      H10Y           21.9699838617      -14.2008505024       -5.2118372781  MEMB      129             0.0000000000
     15185       129  SAPS      C311           20.5992869698      -12.6290886137       -4.4315667847  MEMB      129             0.0000000000
     15186       129  SAPS      H11X           19.7122882239      -13.0714709654       -4.9334151439  MEMB      129             0.0000000000
     15187       129  SAPS      H11Y           20.4638738456      -11.5521130749       -4.6684380997  MEMB      129             0.0000000000
     15188       129  SAPS      C312           20.8151264473      -12.6795731518       -2.9299385184  MEMB      129             0.0000000000
     15189       129  SAPS      H12X           21.7757412407      -12.1673256896       -2.7082578904  MEMB      129             0.0000000000
     15190       129  SAPS      H12Y           20.9183728130      -13.7757695589       -2.7815651321  MEMB      129             0.0000000000
     15191       129  SAPS      C313           19.6741482767      -12.1524256952       -2.0983490418  MEMB      129             0.0000000000
     15192       129  SAPS      H13X           18.7382334250      -12.4416550532       -2.6224959257  MEMB      129             0.0000000000
     15193       129  SAPS      H13Y           19.6179263934      -11.0432652517       -2.0679661381  MEMB      129             0.0000000000
     15194       129  SAPS      C314           19.6991447965      -12.7437132841       -0.6680372132  MEMB      129             0.0000000000
     15195       129  SAPS      H14X           19.6651103501      -13.8527905264       -0.7238073906  MEMB      129             0.0000000000
     15196       129  SAPS      H14Y           18.7559329487      -12.6072748161       -0.0970225923  MEMB      129             0.0000000000
     15197       129  SAPS      C315           20.8896949558      -12.2012869359        0.1138326240  MEMB      129             0.0000000000
     15198       129  SAPS      H15X           21.8554440581      -12.4286619567       -0.3861177434  MEMB      129             0.0000000000
     15199       129  SAPS      H15Y           20.9362232472      -12.5942967431        1.1519548012  MEMB      129             0.0000000000
     15200       129  SAPS      C316           20.8501833754      -10.7205833516        0.4503909087  MEMB      129             0.0000000000
     15201       129  SAPS      H16X           20.8079384378      -10.0911918533       -0.4641597877  MEMB      129             0.0000000000
     15202       129  SAPS      H16Y           21.7163038869      -10.2879704086        0.9953698498  MEMB      129             0.0000000000
     15203       129  SAPS      C317           19.6957828292      -10.2579125375        1.3541434831  MEMB      129             0.0000000000
     15204       129  SAPS      H17X           18.7295499320      -10.2655500064        0.8058207680  MEMB      129             0.0000000000
     15205       129  SAPS      H17Y           19.8674472476       -9.1603056030        1.3435847496  MEMB      129             0.0000000000
     15206       129  SAPS      C318           19.5666955707      -10.9583166504        2.6551747844  MEMB      129             0.0000000000
     15207       129  SAPS      H18X           19.3059328471      -10.2475842445        3.4683067205  MEMB      129             0.0000000000
     15208       129  SAPS      H18Y           20.5304592621      -11.4021326874        2.9845797391  MEMB      129             0.0000000000
     15209       129  SAPS      H18Z           18.8245741202      -11.7842088513        2.6936290543  MEMB      129             0.0000000000
     15210       130  CHL1      C3             13.3314070908       20.8026393889      -17.3119700000  MEMB      130             0.0000000000
     15211       130  CHL1      H3             13.8828601909       21.7223483575      -17.0215100000  MEMB      130             0.0000000000
     15212       130  CHL1      O3             13.1829313092       20.8791006111      -18.6880300000  MEMB      130             0.0000000000
     15213       130  CHL1      H3'            14.0558382419       21.0460974012      -19.0509800000  MEMB      130             0.0000000000
     15214       130  CHL1      C4             14.0544942653       19.5442022157      -17.0059800000  MEMB      130             0.0000000000
     15215       130  CHL1      H4A            13.5516360152       18.6569399641      -17.4466900000  MEMB      130             0.0000000000
     15216       130  CHL1      H4B            15.0692940008       19.6633601943      -17.4422300000  MEMB      130             0.0000000000
     15217       130  CHL1      C5             14.1781257222       19.3580066355      -15.5178300000  MEMB      130             0.0000000000
     15218       130  CHL1      C6             15.4126883793       19.2434638733      -14.9673700000  MEMB      130             0.0000000000
     15219       130  CHL1      H6             16.3392661030       19.1354266832      -15.5502800000  MEMB      130             0.0000000000
     15220       130  CHL1      C7             15.6845406596       19.1527949470      -13.5026700000  MEMB      130             0.0000000000
     15221       130  CHL1      H7A            16.4430792903       18.4077029687      -13.1804900000  MEMB      130             0.0000000000
     15222       130  CHL1      H7B            15.9766928924       20.2071911986      -13.3097600000  MEMB      130             0.0000000000
     15223       130  CHL1      C8             14.3412876326       18.8461155024      -12.6959700000  MEMB      130             0.0000000000
     15224       130  CHL1      H8             13.9517438480       17.8623969207      -13.0349000000  MEMB      130             0.0000000000
     15225       130  CHL1      C14            14.4706818997       19.0256623323      -11.1107300000  MEMB      130             0.0000000000
     15226       130  CHL1      H14            14.7381281914       20.0948764035      -10.9708200000  MEMB      130             0.0000000000
     15227       130  CHL1      C15            15.6280125008       18.4086652329      -10.3583900000  MEMB      130             0.0000000000
     15228       130  CHL1      H15A           15.9936051889       17.4801524164      -10.8467700000  MEMB      130             0.0000000000
     15229       130  CHL1      H15B           16.5064165059       19.0885885436      -10.3375600000  MEMB      130             0.0000000000
     15230       130  CHL1      C16            15.1632902233       18.1985756669       -8.9667300000  MEMB      130             0.0000000000
     15231       130  CHL1      H16A           15.1415460692       17.1371362702       -8.6393200000  MEMB      130             0.0000000000
     15232       130  CHL1      H16B           15.8335914786       18.8047391401       -8.3205400000  MEMB      130             0.0000000000
     15233       130  CHL1      C17            13.7301671934       18.8591886987       -8.8648300000  MEMB      130             0.0000000000
     15234       130  CHL1      H17            13.8699795810       19.9067853850       -8.5223500000  MEMB      130             0.0000000000
     15235       130  CHL1      C13            13.1951170518       18.7480305192      -10.3257400000  MEMB      130             0.0000000000
     15236       130  CHL1      C18            12.7052022195       17.2987116349      -10.5254200000  MEMB      130             0.0000000000
     15237       130  CHL1      H18A           11.9313079565       17.0299810969       -9.7749600000  MEMB      130             0.0000000000
     15238       130  CHL1      H18B           12.4125192997       17.1296612194      -11.5837600000  MEMB      130             0.0000000000
     15239       130  CHL1      H18C           13.5940524872       16.6616826552      -10.3293000000  MEMB      130             0.0000000000
     15240       130  CHL1      C12            12.1128049284       19.7683069640      -10.7372200000  MEMB      130             0.0000000000
     15241       130  CHL1      H12A           11.1426277579       19.5594935249      -10.2377400000  MEMB      130             0.0000000000
     15242       130  CHL1      H12B           12.4667628025       20.7668051083      -10.4025100000  MEMB      130             0.0000000000
     15243       130  CHL1      C11            11.9152914283       19.7831920361      -12.2773900000  MEMB      130             0.0000000000
     15244       130  CHL1      H11A           11.3055210962       18.9257437529      -12.6341700000  MEMB      130             0.0000000000
     15245       130  CHL1      H11B           11.2941085682       20.6548022015      -12.5753000000  MEMB      130             0.0000000000
     15246       130  CHL1      C9             13.1820074063       19.6761106448      -13.1758800000  MEMB      130             0.0000000000
     15247       130  CHL1      H9             13.6393904717       20.6874658413      -13.1280300000  MEMB      130             0.0000000000
     15248       130  CHL1      C10            12.8806085570       19.4679522663      -14.6489800000  MEMB      130             0.0000000000
     15249       130  CHL1      C19            12.1985640288       18.1724571310      -14.9783100000  MEMB      130             0.0000000000
     15250       130  CHL1      H19A           11.1486661495       18.1498392622      -14.6156300000  MEMB      130             0.0000000000
     15251       130  CHL1      H19B           12.1519067866       17.9080811175      -16.0563900000  MEMB      130             0.0000000000
     15252       130  CHL1      H19C           12.7243687409       17.3180814918      -14.5009200000  MEMB      130             0.0000000000
     15253       130  CHL1      C1             12.0295687539       20.6712490938      -15.1563400000  MEMB      130             0.0000000000
     15254       130  CHL1      H1A            10.9992368350       20.6443169237      -14.7416000000  MEMB      130             0.0000000000
     15255       130  CHL1      H1B            12.5249868285       21.6019199561      -14.8060200000  MEMB      130             0.0000000000
     15256       130  CHL1      C2             11.9332482885       20.8237265313      -16.6747200000  MEMB      130             0.0000000000
     15257       130  CHL1      H2A            11.2472446896       21.6815787311      -16.8414500000  MEMB      130             0.0000000000
     15258       130  CHL1      H2B            11.3020206597       20.0217383032      -17.1136600000  MEMB      130             0.0000000000
     15259       130  CHL1      C20            12.9036226632       18.2844774280       -7.6685900000  MEMB      130             0.0000000000
     15260       130  CHL1      H20            12.6238891190       17.2403446152       -7.9252200000  MEMB      130             0.0000000000
     15261       130  CHL1      C21            11.5146076126       18.9820649235       -7.4692100000  MEMB      130             0.0000000000
     15262       130  CHL1      H21A           10.8612445745       18.9018685501       -8.3642000000  MEMB      130             0.0000000000
     15263       130  CHL1      H21B           11.5631528049       20.0882522514       -7.3779800000  MEMB      130             0.0000000000
     15264       130  CHL1      H21C           10.9255681683       18.5192733073       -6.6487300000  MEMB      130             0.0000000000
     15265       130  CHL1      C22            13.6862437737       18.2997108642       -6.3620100000  MEMB      130             0.0000000000
     15266       130  CHL1      H22A           14.7957144253       18.2413409944       -6.3606500000  MEMB      130             0.0000000000
     15267       130  CHL1      H22B           13.6595063914       19.3579256785       -6.0246700000  MEMB      130             0.0000000000
     15268       130  CHL1      C23            13.1746731596       17.2885458656       -5.3291500000  MEMB      130             0.0000000000
     15269       130  CHL1      H23A           12.1074925611       17.1510067202       -5.6058200000  MEMB      130             0.0000000000
     15270       130  CHL1      H23B           13.5711380206       16.2595049986       -5.4641400000  MEMB      130             0.0000000000
     15271       130  CHL1      C24            13.1911213473       17.7877703034       -3.9611700000  MEMB      130             0.0000000000
     15272       130  CHL1      H24A           14.2254590176       17.9706360399       -3.5992000000  MEMB      130             0.0000000000
     15273       130  CHL1      H24B           12.5713439080       18.6973987709       -4.1120800000  MEMB      130             0.0000000000
     15274       130  CHL1      C25            12.5465678031       16.7716499853       -2.9537300000  MEMB      130             0.0000000000
     15275       130  CHL1      H25            11.7019051784       16.2389001058       -3.4406100000  MEMB      130             0.0000000000
     15276       130  CHL1      C26            13.4629516131       15.6725327757       -2.4918000000  MEMB      130             0.0000000000
     15277       130  CHL1      H26A           14.4617685556       16.1161570449       -2.2921100000  MEMB      130             0.0000000000
     15278       130  CHL1      H26B           13.0866843720       15.3230778211       -1.5066000000  MEMB      130             0.0000000000
     15279       130  CHL1      H26C           13.4859253309       14.8655911669       -3.2551100000  MEMB      130             0.0000000000
     15280       130  CHL1      C27            12.0384774670       17.5249494127       -1.7008700000  MEMB      130             0.0000000000
     15281       130  CHL1      H27A           11.4265305901       18.3994501691       -2.0092100000  MEMB      130             0.0000000000
     15282       130  CHL1      H27B           11.3914020183       16.8213118014       -1.1347400000  MEMB      130             0.0000000000
     15283       130  CHL1      H27C           12.8692411289       17.7983398950       -1.0157300000  MEMB      130             0.0000000000
     15284       131  SAPE      N              16.8172889978       14.3518022186      -21.0794227428  MEMB      131             0.0000000000
     15285       131  SAPE      HN1            16.5558724047       15.3502372851      -21.2074411013  MEMB      131             0.0000000000
     15286       131  SAPE      HN2            16.2279756502       13.8471057489      -21.7719478143  MEMB      131             0.0000000000
     15287       131  SAPE      HN3            16.6108682882       14.0990037173      -20.0919596152  MEMB      131             0.0000000000
     15288       131  SAPE      C12            18.1624032800       13.7484909700      -21.5507282753  MEMB      131             0.0000000000
     15289       131  SAPE      H12A           18.4028819889       14.2365300339      -22.5193917130  MEMB      131             0.0000000000
     15290       131  SAPE      H12B           18.0902462243       12.6434715170      -21.6404296268  MEMB      131             0.0000000000
     15291       131  SAPE      C11            19.2547852264       14.1614127494      -20.5246250216  MEMB      131             0.0000000000
     15292       131  SAPE      H11A           20.1246655697       14.2455248351      -21.2105946509  MEMB      131             0.0000000000
     15293       131  SAPE      H11B           19.4255825951       13.4928202895      -19.6539164143  MEMB      131             0.0000000000
     15294       131  SAPE      P              20.2215276049       16.4277393188      -19.4178666364  MEMB      131             0.0000000000
     15295       131  SAPE      O13            21.3886299677       16.4223007064      -20.3490053649  MEMB      131             0.0000000000
     15296       131  SAPE      O14            19.6086295826       17.7584047969      -19.1494621431  MEMB      131             0.0000000000
     15297       131  SAPE      O12            19.0649675291       15.5003989328      -20.0196003972  MEMB      131             0.0000000000
     15298       131  SAPE      O11            20.6007198144       15.7757823089      -17.9092894195  MEMB      131             0.0000000000
     15299       131  SAPE      C1             21.0318302486       16.7582906123      -16.9975995456  MEMB      131             0.0000000000
     15300       131  SAPE      HA             21.6132680794       17.5887980996      -17.4520315249  MEMB      131             0.0000000000
     15301       131  SAPE      HB             20.1915433295       17.2588212885      -16.4706195474  MEMB      131             0.0000000000
     15302       131  SAPE      C2             21.9356390174       16.2087814481      -15.9208020962  MEMB      131             0.0000000000
     15303       131  SAPE      HS             22.7635139621       15.7157892359      -16.4738868314  MEMB      131             0.0000000000
     15304       131  SAPE      O21            21.1117672897       15.2828459851      -15.2169358276  MEMB      131             0.0000000000
     15305       131  SAPE      C21            21.6794117332       14.4208698452      -14.3812273482  MEMB      131             0.0000000000
     15306       131  SAPE      O22            22.9090682056       14.3190670328      -14.1325813112  MEMB      131             0.0000000000
     15307       131  SAPE      C22            20.5370081766       13.6772579121      -13.6295648851  MEMB      131             0.0000000000
     15308       131  SAPE      H2R            19.6875766603       14.3332953403      -13.3425075803  MEMB      131             0.0000000000
     15309       131  SAPE      H2S            20.0666595183       13.0066011941      -14.3801066682  MEMB      131             0.0000000000
     15310       131  SAPE      C3             22.5049371335       17.2673557938      -14.9533922016  MEMB      131             0.0000000000
     15311       131  SAPE      HX             23.0110537581       18.1397197934      -15.4193830659  MEMB      131             0.0000000000
     15312       131  SAPE      HY             23.2609240830       16.7387875895      -14.3341823762  MEMB      131             0.0000000000
     15313       131  SAPE      O31            21.5377674687       17.9014185989      -14.0909964100  MEMB      131             0.0000000000
     15314       131  SAPE      C31            21.8393616430       18.1596615743      -12.8887674103  MEMB      131             0.0000000000
     15315       131  SAPE      O32            22.9474421228       17.9656961108      -12.3658949266  MEMB      131             0.0000000000
     15316       131  SAPE      C32            20.5632021617       18.5792311400      -12.0949268454  MEMB      131             0.0000000000
     15317       131  SAPE      H2X            19.7782138193       17.8090047704      -12.2526158056  MEMB      131             0.0000000000
     15318       131  SAPE      H2Y            20.0769047798       19.5104564656      -12.4563896464  MEMB      131             0.0000000000
     15319       131  SAPE      C23            21.0424889431       12.8596073016      -12.4647572608  MEMB      131             0.0000000000
     15320       131  SAPE      H3R            21.8664238295       12.1671698974      -12.7404067328  MEMB      131             0.0000000000
     15321       131  SAPE      H3S            20.2123735234       12.2334774239      -12.0733614054  MEMB      131             0.0000000000
     15322       131  SAPE      C24            21.4263357107       13.8374690210      -11.2527317181  MEMB      131             0.0000000000
     15323       131  SAPE      H4R            20.5355017340       14.2225497209      -10.7119470752  MEMB      131             0.0000000000
     15324       131  SAPE      H4S            21.9793856001       14.7685832823      -11.5006898082  MEMB      131             0.0000000000
     15325       131  SAPE      C25            22.4401310979       13.1307956873      -10.3740187969  MEMB      131             0.0000000000
     15326       131  SAPE      H5R            23.2021833384       12.5574447028      -10.9222390461  MEMB      131             0.0000000000
     15327       131  SAPE      C26            22.3774858035       12.9092300646       -9.0346299740  MEMB      131             0.0000000000
     15328       131  SAPE      H6R            23.1882597947       12.3817936266       -8.5107447272  MEMB      131             0.0000000000
     15329       131  SAPE      C27            21.2828179427       13.3691248874       -8.0341367009  MEMB      131             0.0000000000
     15330       131  SAPE      H7R            20.3552082931       13.6905655423       -8.5542683245  MEMB      131             0.0000000000
     15331       131  SAPE      H7S            21.6307284384       14.2788351848       -7.4996211137  MEMB      131             0.0000000000
     15332       131  SAPE      C28            21.0510057378       12.3162787030       -6.9248399575  MEMB      131             0.0000000000
     15333       131  SAPE      H8R            21.9013603107       11.6239503263       -6.8377833231  MEMB      131             0.0000000000
     15334       131  SAPE      C29            20.1294356449       12.3027329462       -5.9537428430  MEMB      131             0.0000000000
     15335       131  SAPE      H9R            20.2227311356       11.3989421798       -5.3336954070  MEMB      131             0.0000000000
     15336       131  SAPE      C210           19.0515978447       13.2853542993       -5.5504732142  MEMB      131             0.0000000000
     15337       131  SAPE      H10R           19.2375474692       14.1244788824       -6.2544719085  MEMB      131             0.0000000000
     15338       131  SAPE      H10S           19.4820563025       13.7853325401       -4.6565787809  MEMB      131             0.0000000000
     15339       131  SAPE      C211           17.5615035547       12.9820799084       -5.4774894318  MEMB      131             0.0000000000
     15340       131  SAPE      H11R           17.0660775716       12.5796731125       -6.3733809008  MEMB      131             0.0000000000
     15341       131  SAPE      C212           16.7913923702       13.0779925917       -4.4211874762  MEMB      131             0.0000000000
     15342       131  SAPE      H12R           15.6940431922       13.0022405980       -4.4305162301  MEMB      131             0.0000000000
     15343       131  SAPE      C213           17.1778709429       13.5051461498       -3.0528298667  MEMB      131             0.0000000000
     15344       131  SAPE      H13R           16.4607794467       14.2915770638       -2.7340394038  MEMB      131             0.0000000000
     15345       131  SAPE      H13S           18.1703619993       14.0019792710       -3.1022166459  MEMB      131             0.0000000000
     15346       131  SAPE      C214           17.3744895151       12.3831660852       -2.0793928925  MEMB      131             0.0000000000
     15347       131  SAPE      H14R           16.9255853996       11.4271469154       -2.3868207959  MEMB      131             0.0000000000
     15348       131  SAPE      C215           18.0747945989       12.3338949801       -0.9345834477  MEMB      131             0.0000000000
     15349       131  SAPE      H15R           18.0537384744       11.4286498023       -0.3100142656  MEMB      131             0.0000000000
     15350       131  SAPE      C216           18.8544142782       13.4617519241       -0.3195326217  MEMB      131             0.0000000000
     15351       131  SAPE      H16R           19.4875916056       13.8969743159       -1.1220216272  MEMB      131             0.0000000000
     15352       131  SAPE      H16S           19.5020568864       13.0049967411        0.4590919609  MEMB      131             0.0000000000
     15353       131  SAPE      C217           18.0811360578       14.7259697962        0.0545070248  MEMB      131             0.0000000000
     15354       131  SAPE      H17R           17.4845572795       15.0247546356       -0.8338288049  MEMB      131             0.0000000000
     15355       131  SAPE      H17S           18.7876423313       15.5604573202        0.2514845062  MEMB      131             0.0000000000
     15356       131  SAPE      C218           17.0544868635       14.4052717865        1.1823530469  MEMB      131             0.0000000000
     15357       131  SAPE      H18R           17.5511479102       13.7080468754        1.8905374235  MEMB      131             0.0000000000
     15358       131  SAPE      H18S           16.3050476147       13.8252813981        0.6024620746  MEMB      131             0.0000000000
     15359       131  SAPE      C219           16.4090643049       15.5865343623        1.8338713084  MEMB      131             0.0000000000
     15360       131  SAPE      H19R           15.4753532706       15.1952646626        2.2914871817  MEMB      131             0.0000000000
     15361       131  SAPE      H19S           15.9935105701       16.3093364706        1.0995729527  MEMB      131             0.0000000000
     15362       131  SAPE      C220           17.1868928247       16.3740843434        2.8502006223  MEMB      131             0.0000000000
     15363       131  SAPE      H20R           17.5885344501       15.6726183138        3.6124020759  MEMB      131             0.0000000000
     15364       131  SAPE      H20S           16.5404225486       17.0910888114        3.4000216991  MEMB      131             0.0000000000
     15365       131  SAPE      H20T           17.9497216117       16.9022573142        2.2390995771  MEMB      131             0.0000000000
     15366       131  SAPE      C33            20.9327742276       18.6398675247      -10.6753792393  MEMB      131             0.0000000000
     15367       131  SAPE      H3X            20.1215768981       19.2289784096      -10.1966018791  MEMB      131             0.0000000000
     15368       131  SAPE      H3Y            21.8836601722       19.1880791278      -10.5033299921  MEMB      131             0.0000000000
     15369       131  SAPE      C34            20.9927776787       17.2418399284       -9.9946886921  MEMB      131             0.0000000000
     15370       131  SAPE      H4X            21.9695762366       16.7992082179      -10.2849691327  MEMB      131             0.0000000000
     15371       131  SAPE      H4Y            20.1623417009       16.6239912155      -10.3983713976  MEMB      131             0.0000000000
     15372       131  SAPE      C35            20.8107985481       17.3847976393       -8.4527559804  MEMB      131             0.0000000000
     15373       131  SAPE      H5X            21.3509346965       18.3416935944       -8.2886699741  MEMB      131             0.0000000000
     15374       131  SAPE      H5Y            21.2780183126       16.5275904585       -7.9224519519  MEMB      131             0.0000000000
     15375       131  SAPE      C36            19.3757169825       17.6445129173       -7.9587527080  MEMB      131             0.0000000000
     15376       131  SAPE      H6X            18.6963939623       16.7711442862       -8.0590940488  MEMB      131             0.0000000000
     15377       131  SAPE      H6Y            18.8545043215       18.3607770013       -8.6292934924  MEMB      131             0.0000000000
     15378       131  SAPE      C37            19.2474525934       18.1507579457       -6.4950394952  MEMB      131             0.0000000000
     15379       131  SAPE      H7X            18.1710186094       18.3860772967       -6.3527870922  MEMB      131             0.0000000000
     15380       131  SAPE      H7Y            19.9061820622       19.0213143034       -6.2888164643  MEMB      131             0.0000000000
     15381       131  SAPE      C38            19.5008464075       17.0344173324       -5.4359491293  MEMB      131             0.0000000000
     15382       131  SAPE      H8X            20.5150368248       16.5835478836       -5.4855018922  MEMB      131             0.0000000000
     15383       131  SAPE      H8Y            18.8564810476       16.1853709565       -5.7493730568  MEMB      131             0.0000000000
     15384       131  SAPE      C39            19.1300125731       17.3967493454       -3.9954350014  MEMB      131             0.0000000000
     15385       131  SAPE      H9X            18.1775486027       16.9598865321       -3.6262680656  MEMB      131             0.0000000000
     15386       131  SAPE      H9Y            19.1176279814       18.5069798323       -3.9559904431  MEMB      131             0.0000000000
     15387       131  SAPE      C310           20.2393112026       17.0872203905       -2.9336088332  MEMB      131             0.0000000000
     15388       131  SAPE      H10X           21.1628754258       17.5747790713       -3.3126029696  MEMB      131             0.0000000000
     15389       131  SAPE      H10Y           20.3080369616       15.9876323033       -3.0768005148  MEMB      131             0.0000000000
     15390       131  SAPE      C311           19.9183028181       17.7036740853       -1.4822024868  MEMB      131             0.0000000000
     15391       131  SAPE      H11X           19.0314872591       17.1061111115       -1.1808761969  MEMB      131             0.0000000000
     15392       131  SAPE      H11Y           19.5441338006       18.7479226226       -1.5443608672  MEMB      131             0.0000000000
     15393       131  SAPE      C312           21.0090358870       17.5400527167       -0.3731711063  MEMB      131             0.0000000000
     15394       131  SAPE      H12X           20.5877546338       17.7009804246        0.6421829209  MEMB      131             0.0000000000
     15395       131  SAPE      H12Y           21.7988314035       18.3187664756       -0.4375827703  MEMB      131             0.0000000000
     15396       131  SAPE      C313           21.7064739569       16.2376681801       -0.3827241627  MEMB      131             0.0000000000
     15397       131  SAPE      H13X           22.2060319053       16.1575127469       -1.3718330103  MEMB      131             0.0000000000
     15398       131  SAPE      H13Y           20.9671984804       15.4157499498       -0.4933738350  MEMB      131             0.0000000000
     15399       131  SAPE      C314           22.7881842587       15.9649029052        0.7313366680  MEMB      131             0.0000000000
     15400       131  SAPE      H14X           23.3863777123       15.1098177004        0.3501352530  MEMB      131             0.0000000000
     15401       131  SAPE      H14Y           22.1520560484       15.7289018687        1.6110901776  MEMB      131             0.0000000000
     15402       131  SAPE      C315           23.8876286409       17.1107817896        0.8196618965  MEMB      131             0.0000000000
     15403       131  SAPE      H15X           23.2519867683       17.8556292793        1.3445272215  MEMB      131             0.0000000000
     15404       131  SAPE      H15Y           24.3655768848       17.4154497840       -0.1358824839  MEMB      131             0.0000000000
     15405       131  SAPE      C316           25.0309815947       16.6059300960        1.7570448695  MEMB      131             0.0000000000
     15406       131  SAPE      H16X           25.4028085754       15.7297915693        1.1839423595  MEMB      131             0.0000000000
     15407       131  SAPE      H16Y           24.5487378943       16.2980129670        2.7093833381  MEMB      131             0.0000000000
     15408       131  SAPE      C317           26.0103521963       17.6401292642        2.0502921091  MEMB      131             0.0000000000
     15409       131  SAPE      H17X           26.5378463673       17.9319473555        1.1170653729  MEMB      131             0.0000000000
     15410       131  SAPE      H17Y           26.8408238735       17.2866005902        2.6981019366  MEMB      131             0.0000000000
     15411       131  SAPE      C318           25.3600584356       18.8978029574        2.7159875063  MEMB      131             0.0000000000
     15412       131  SAPE      H18X           24.5482859662       19.3083914174        2.0782076810  MEMB      131             0.0000000000
     15413       131  SAPE      H18Y           26.1731817931       19.6296277163        2.9098547719  MEMB      131             0.0000000000
     15414       131  SAPE      H18Z           24.8295428037       18.6579046379        3.6622024880  MEMB      131             0.0000000000
     15415       132  POPC      N             -23.4484841328      -13.4849241308      -19.9083616105  MEMB      132             0.0000000000
     15416       132  POPC      C12           -22.4149769387      -12.6928163784      -20.6574044950  MEMB      132             0.0000000000
     15417       132  POPC      H12A          -22.9539264466      -12.0900954509      -21.3734079541  MEMB      132             0.0000000000
     15418       132  POPC      H12B          -21.7645317632      -13.3687855138      -21.1925558453  MEMB      132             0.0000000000
     15419       132  POPC      C13           -22.8013320326      -14.7599188245      -19.3595698495  MEMB      132             0.0000000000
     15420       132  POPC      H13A          -22.0854017327      -14.4294453968      -18.6215785077  MEMB      132             0.0000000000
     15421       132  POPC      H13B          -23.5315706833      -15.4750999545      -19.0107614700  MEMB      132             0.0000000000
     15422       132  POPC      H13C          -22.2447266387      -15.2316882809      -20.1558259647  MEMB      132             0.0000000000
     15423       132  POPC      C14           -24.0290788417      -12.6024701948      -18.8273751156  MEMB      132             0.0000000000
     15424       132  POPC      H14A          -24.5620589550      -11.7597650323      -19.2423210680  MEMB      132             0.0000000000
     15425       132  POPC      H14B          -24.8089280192      -13.1681822869      -18.3393128180  MEMB      132             0.0000000000
     15426       132  POPC      H14C          -23.2279707786      -12.2893393250      -18.1742478102  MEMB      132             0.0000000000
     15427       132  POPC      C15           -24.6405969557      -13.8554578961      -20.8526122014  MEMB      132             0.0000000000
     15428       132  POPC      H15A          -24.2127455880      -14.4738093637      -21.6278440165  MEMB      132             0.0000000000
     15429       132  POPC      H15B          -25.0008970368      -12.8717508956      -21.1151085998  MEMB      132             0.0000000000
     15430       132  POPC      H15C          -25.4623612178      -14.3886232497      -20.3978172614  MEMB      132             0.0000000000
     15431       132  POPC      C11           -21.3844174112      -11.8589305242      -19.8634218826  MEMB      132             0.0000000000
     15432       132  POPC      H11A          -21.7769956967      -10.8240119612      -19.7677822554  MEMB      132             0.0000000000
     15433       132  POPC      H11B          -20.4537986033      -11.8385150495      -20.4699306389  MEMB      132             0.0000000000
     15434       132  POPC      P             -19.6855864246      -12.0125153985      -17.8302132505  MEMB      132             0.0000000000
     15435       132  POPC      O13           -19.6641471837      -12.5757895594      -16.4566971162  MEMB      132             0.0000000000
     15436       132  POPC      O14           -19.5443137835      -10.5131083744      -17.9168689228  MEMB      132             0.0000000000
     15437       132  POPC      O12           -21.0425506956      -12.4245995350      -18.5954460244  MEMB      132             0.0000000000
     15438       132  POPC      O11           -18.6395098206      -12.7894964686      -18.7320295362  MEMB      132             0.0000000000
     15439       132  POPC      C1            -18.7633791013      -14.0757007913      -19.3393746828  MEMB      132             0.0000000000
     15440       132  POPC      HA            -18.2721766040      -14.0541527199      -20.3356561021  MEMB      132             0.0000000000
     15441       132  POPC      HB            -19.7869794370      -14.4638370054      -19.5288834010  MEMB      132             0.0000000000
     15442       132  POPC      C2            -17.9961323866      -15.2615765509      -18.5863464881  MEMB      132             0.0000000000
     15443       132  POPC      HS            -17.9958761394      -16.0670700329      -19.3515270731  MEMB      132             0.0000000000
     15444       132  POPC      O21           -18.6931380017      -15.6423549371      -17.4006121615  MEMB      132             0.0000000000
     15445       132  POPC      C21           -19.7620399023      -16.3966754960      -17.4819142956  MEMB      132             0.0000000000
     15446       132  POPC      O22           -20.1910372360      -16.9575184262      -18.4677412711  MEMB      132             0.0000000000
     15447       132  POPC      C22           -20.4603327961      -16.5225529067      -16.1026760573  MEMB      132             0.0000000000
     15448       132  POPC      H2R           -19.8259925725      -16.0690592658      -15.3112993793  MEMB      132             0.0000000000
     15449       132  POPC      H2S           -20.5939776087      -17.6015891288      -15.8743318568  MEMB      132             0.0000000000
     15450       132  POPC      C3            -16.4852769193      -14.8672144373      -18.3128153233  MEMB      132             0.0000000000
     15451       132  POPC      HX            -15.9975210911      -14.6107518405      -19.2775133327  MEMB      132             0.0000000000
     15452       132  POPC      HY            -15.9737640293      -15.7392051932      -17.8520472496  MEMB      132             0.0000000000
     15453       132  POPC      O31           -16.3502451398      -13.7055340867      -17.4667389995  MEMB      132             0.0000000000
     15454       132  POPC      C31           -16.4905080969      -13.8377710844      -16.1724374590  MEMB      132             0.0000000000
     15455       132  POPC      O32           -16.4836317575      -14.8871967865      -15.6134026624  MEMB      132             0.0000000000
     15456       132  POPC      C32           -16.5196759239      -12.4780112055      -15.4658876454  MEMB      132             0.0000000000
     15457       132  POPC      H2X           -17.4141328117      -11.9922066899      -15.9111536322  MEMB      132             0.0000000000
     15458       132  POPC      H2Y           -15.6682639877      -11.8896645251      -15.8699503543  MEMB      132             0.0000000000
     15459       132  POPC      C23           -21.9191003372      -15.8686666812      -16.0883970025  MEMB      132             0.0000000000
     15460       132  POPC      H3R           -22.5500115700      -16.2626811719      -16.9136391968  MEMB      132             0.0000000000
     15461       132  POPC      H3S           -21.7946597456      -14.7992082721      -16.3624303804  MEMB      132             0.0000000000
     15462       132  POPC      C24           -22.6578238602      -15.9076122138      -14.7011139861  MEMB      132             0.0000000000
     15463       132  POPC      H4R           -22.4698941551      -16.9350539534      -14.3224758588  MEMB      132             0.0000000000
     15464       132  POPC      H4S           -23.7583476784      -15.7595870973      -14.7365651331  MEMB      132             0.0000000000
     15465       132  POPC      C25           -22.1986645914      -14.7732913543      -13.6645922258  MEMB      132             0.0000000000
     15466       132  POPC      H5R           -22.4957408550      -13.7287674752      -13.8991910896  MEMB      132             0.0000000000
     15467       132  POPC      H5S           -21.1092036435      -14.9045401645      -13.8382860898  MEMB      132             0.0000000000
     15468       132  POPC      C26           -22.6002594859      -15.1020866003      -12.2810408589  MEMB      132             0.0000000000
     15469       132  POPC      H6R           -23.6596297532      -15.1402360581      -11.9484750469  MEMB      132             0.0000000000
     15470       132  POPC      H6S           -22.2363830453      -14.1660926498      -11.8058251145  MEMB      132             0.0000000000
     15471       132  POPC      C27           -21.6566694587      -16.1046413837      -11.6280979034  MEMB      132             0.0000000000
     15472       132  POPC      H7R           -20.6053029369      -16.0194699195      -11.9769463958  MEMB      132             0.0000000000
     15473       132  POPC      H7S           -21.9526370078      -17.1422235223      -11.8929520547  MEMB      132             0.0000000000
     15474       132  POPC      C28           -21.4716608049      -15.9724041171      -10.0599480739  MEMB      132             0.0000000000
     15475       132  POPC      H8R           -22.4467306752      -16.2601311230       -9.6118715448  MEMB      132             0.0000000000
     15476       132  POPC      H8S           -21.3721318691      -14.9352886886       -9.6741931285  MEMB      132             0.0000000000
     15477       132  POPC      C29           -20.3333893336      -16.7927331893       -9.4139028209  MEMB      132             0.0000000000
     15478       132  POPC      H91           -20.7369942742      -17.7400813632       -9.0270764218  MEMB      132             0.0000000000
     15479       132  POPC      C210          -19.0161648476      -16.3602228140       -9.3768112190  MEMB      132             0.0000000000
     15480       132  POPC      H101          -18.3529977567      -16.9968791878       -8.7727591479  MEMB      132             0.0000000000
     15481       132  POPC      C211          -18.3918029935      -15.0798462355       -9.9055515235  MEMB      132             0.0000000000
     15482       132  POPC      H11R          -18.9289728320      -14.8084839515      -10.8394309766  MEMB      132             0.0000000000
     15483       132  POPC      H11S          -17.3377658765      -15.1395855965      -10.2516119828  MEMB      132             0.0000000000
     15484       132  POPC      C212          -18.6269067520      -14.0145347023       -8.9538545946  MEMB      132             0.0000000000
     15485       132  POPC      H12R          -19.6383448475      -13.8591382504       -8.5212273949  MEMB      132             0.0000000000
     15486       132  POPC      H12S          -18.3440104624      -13.0437829868       -9.4142142127  MEMB      132             0.0000000000
     15487       132  POPC      C213          -17.6579506926      -14.1909646228       -7.7108173579  MEMB      132             0.0000000000
     15488       132  POPC      H13R          -17.3561846149      -13.1961789431       -7.3188231450  MEMB      132             0.0000000000
     15489       132  POPC      H13S          -16.7733386211      -14.7694840255       -8.0530130536  MEMB      132             0.0000000000
     15490       132  POPC      C214          -18.1891138372      -15.1633312311       -6.6057598579  MEMB      132             0.0000000000
     15491       132  POPC      H14R          -17.3362423563      -15.2775434224       -5.9029895567  MEMB      132             0.0000000000
     15492       132  POPC      H14S          -18.3207032441      -16.2220703147       -6.9157228097  MEMB      132             0.0000000000
     15493       132  POPC      C215          -19.4349501411      -14.6806023302       -5.8119262716  MEMB      132             0.0000000000
     15494       132  POPC      H15R          -20.4025888193      -15.0535815917       -6.2105278312  MEMB      132             0.0000000000
     15495       132  POPC      H15S          -19.4452464117      -13.5729170970       -5.8970623743  MEMB      132             0.0000000000
     15496       132  POPC      C216          -19.3635937590      -14.9972977798       -4.3005928116  MEMB      132             0.0000000000
     15497       132  POPC      H16R          -18.4383333819      -14.4590430996       -4.0031098459  MEMB      132             0.0000000000
     15498       132  POPC      H16S          -19.2721779484      -16.0776399652       -4.0580545641  MEMB      132             0.0000000000
     15499       132  POPC      C217          -20.4819636799      -14.3538650157       -3.4452419483  MEMB      132             0.0000000000
     15500       132  POPC      H17R          -21.4072628410      -14.5411897274       -4.0309482016  MEMB      132             0.0000000000
     15501       132  POPC      H17S          -20.1995645150      -13.2816746103       -3.3746770235  MEMB      132             0.0000000000
     15502       132  POPC      C218          -20.5359785027      -14.7580927876       -1.9820896711  MEMB      132             0.0000000000
     15503       132  POPC      H18R          -20.6778279326      -15.8574029174       -1.9064814584  MEMB      132             0.0000000000
     15504       132  POPC      H18S          -21.3735608704      -14.2535995168       -1.4545837242  MEMB      132             0.0000000000
     15505       132  POPC      H18T          -19.6537528400      -14.4178362313       -1.3988035585  MEMB      132             0.0000000000
     15506       132  POPC      C33           -16.4874692471      -12.5432857802      -14.0050614191  MEMB      132             0.0000000000
     15507       132  POPC      H3X           -15.5130347579      -13.0147323008      -13.7549894667  MEMB      132             0.0000000000
     15508       132  POPC      H3Y           -17.3173903428      -13.1752466377      -13.6227298762  MEMB      132             0.0000000000
     15509       132  POPC      C34           -16.5735889489      -11.1010797000      -13.4371210661  MEMB      132             0.0000000000
     15510       132  POPC      H4X           -17.0470006140      -10.4424421536      -14.1963306286  MEMB      132             0.0000000000
     15511       132  POPC      H4Y           -15.5173813765      -10.8250129523      -13.2308836516  MEMB      132             0.0000000000
     15512       132  POPC      C35           -17.2548421157      -11.0197599827      -12.1348838908  MEMB      132             0.0000000000
     15513       132  POPC      H5X           -16.5661524717      -10.7539746255      -11.3045911800  MEMB      132             0.0000000000
     15514       132  POPC      H5Y           -17.7080904494      -11.9592605070      -11.7524891654  MEMB      132             0.0000000000
     15515       132  POPC      C36           -18.4018351857       -9.9847138361      -12.1175853803  MEMB      132             0.0000000000
     15516       132  POPC      H6X           -19.2783888997      -10.4053019517      -12.6552471094  MEMB      132             0.0000000000
     15517       132  POPC      H6Y           -18.0304322230       -9.0707793119      -12.6285689317  MEMB      132             0.0000000000
     15518       132  POPC      C37           -19.0246696728       -9.6099846147      -10.7809863758  MEMB      132             0.0000000000
     15519       132  POPC      H7X           -19.5795554114       -8.6479472741      -10.8111040150  MEMB      132             0.0000000000
     15520       132  POPC      H7Y           -18.2258282621       -9.4330858292      -10.0294009472  MEMB      132             0.0000000000
     15521       132  POPC      C38           -19.9983364116      -10.7600201990      -10.3734918314  MEMB      132             0.0000000000
     15522       132  POPC      H8X           -19.3947875623      -11.6400872572      -10.6825729550  MEMB      132             0.0000000000
     15523       132  POPC      H8Y           -20.9130698849      -10.8591203159      -10.9961973902  MEMB      132             0.0000000000
     15524       132  POPC      C39           -20.1120714235      -10.9670512115       -8.8081324961  MEMB      132             0.0000000000
     15525       132  POPC      H9X           -19.0658282189      -10.9651128938       -8.4343779204  MEMB      132             0.0000000000
     15526       132  POPC      H9Y           -20.6125120050      -11.9383545285       -8.6070108262  MEMB      132             0.0000000000
     15527       132  POPC      C310          -20.7067159663       -9.7350853636       -8.1296935584  MEMB      132             0.0000000000
     15528       132  POPC      H10X          -21.7921646674       -9.6760558894       -8.3591218967  MEMB      132             0.0000000000
     15529       132  POPC      H10Y          -20.3333362303       -8.7843588409       -8.5667602522  MEMB      132             0.0000000000
     15530       132  POPC      C311          -20.6065793002       -9.6686841746       -6.6315191738  MEMB      132             0.0000000000
     15531       132  POPC      H11X          -20.9158265790       -8.6612996153       -6.2795759500  MEMB      132             0.0000000000
     15532       132  POPC      H11Y          -19.5717292737       -9.9113081564       -6.3081925738  MEMB      132             0.0000000000
     15533       132  POPC      C312          -21.5955800570      -10.5978669944       -5.9131795983  MEMB      132             0.0000000000
     15534       132  POPC      H12X          -21.3845804996      -11.6537319300       -6.1869485601  MEMB      132             0.0000000000
     15535       132  POPC      H12Y          -22.6171722975      -10.3363037216       -6.2628290390  MEMB      132             0.0000000000
     15536       132  POPC      C313          -21.5890224862      -10.4024641189       -4.3457306838  MEMB      132             0.0000000000
     15537       132  POPC      H13X          -21.9312227676       -9.3560994008       -4.1962633031  MEMB      132             0.0000000000
     15538       132  POPC      H13Y          -20.6176702686      -10.7316699551       -3.9186250342  MEMB      132             0.0000000000
     15539       132  POPC      C314          -22.7074778471      -11.1327019467       -3.5508813173  MEMB      132             0.0000000000
     15540       132  POPC      H14X          -22.6306921051      -12.2149183194       -3.7901157262  MEMB      132             0.0000000000
     15541       132  POPC      H14Y          -23.6642973727      -10.6901030340       -3.9014862085  MEMB      132             0.0000000000
     15542       132  POPC      C315          -22.5636753462      -10.9739978343       -2.0483027627  MEMB      132             0.0000000000
     15543       132  POPC      H15X          -22.7707821695       -9.9077543014       -1.8147370198  MEMB      132             0.0000000000
     15544       132  POPC      H15Y          -21.4911240754      -11.1851914682       -1.8499282823  MEMB      132             0.0000000000
     15545       132  POPC      C316          -23.4350462733      -11.8991784176       -1.2593041346  MEMB      132             0.0000000000
     15546       132  POPC      H16X          -23.1730206880      -12.9529557716       -1.4942862594  MEMB      132             0.0000000000
     15547       132  POPC      H16Y          -24.4880567731      -11.5457051026       -1.2826830200  MEMB      132             0.0000000000
     15548       132  POPC      H16Z          -23.2249823419      -11.7895470464       -0.1738656995  MEMB      132             0.0000000000
     15549       133  CHL1      C3             -9.3597332151      -23.5320734715      -17.3127200000  MEMB      133             0.0000000000
     15550       133  CHL1      H3             -8.2895425202      -23.8075463335      -17.1981500000  MEMB      133             0.0000000000
     15551       133  CHL1      O3             -9.5939903849      -23.3277453285      -18.6872800000  MEMB      133             0.0000000000
     15552       133  CHL1      H3'           -10.4794490904      -22.9572443216      -18.7041100000  MEMB      133             0.0000000000
     15553       133  CHL1      C4            -10.4236556687      -24.5532704484      -16.8053400000  MEMB      133             0.0000000000
     15554       133  CHL1      H4A           -11.4576009627      -24.2370146070      -17.0608100000  MEMB      133             0.0000000000
     15555       133  CHL1      H4B           -10.2755714733      -25.4699254892      -17.4153700000  MEMB      133             0.0000000000
     15556       133  CHL1      C5            -10.3285671411      -24.7670024180      -15.3086500000  MEMB      133             0.0000000000
     15557       133  CHL1      C6            -10.0037026359      -25.9470421838      -14.8353700000  MEMB      133             0.0000000000
     15558       133  CHL1      H6             -9.8629100445      -26.7865978303      -15.5320200000  MEMB      133             0.0000000000
     15559       133  CHL1      C7             -9.8929567060      -26.2373085525      -13.3982300000  MEMB      133             0.0000000000
     15560       133  CHL1      H7A           -10.2536301475      -27.2388617470      -13.0802300000  MEMB      133             0.0000000000
     15561       133  CHL1      H7B            -8.8481598580      -26.1948004858      -13.0228200000  MEMB      133             0.0000000000
     15562       133  CHL1      C8            -10.5299762093      -25.1606745528      -12.4866100000  MEMB      133             0.0000000000
     15563       133  CHL1      H8            -11.6153071979      -25.3759691428      -12.3865000000  MEMB      133             0.0000000000
     15564       133  CHL1      C14            -9.9515677152      -25.2904334761      -11.0826400000  MEMB      133             0.0000000000
     15565       133  CHL1      H14            -8.8590154843      -25.1009523023      -11.1516300000  MEMB      133             0.0000000000
     15566       133  CHL1      C15           -10.1703653576      -26.6321578972      -10.3246400000  MEMB      133             0.0000000000
     15567       133  CHL1      H15A          -11.2431515780      -26.9110440000      -10.4000400000  MEMB      133             0.0000000000
     15568       133  CHL1      H15B           -9.4389719489      -27.4012700890      -10.6530300000  MEMB      133             0.0000000000
     15569       133  CHL1      C16            -9.8835034984      -26.2183351668       -8.8887000000  MEMB      133             0.0000000000
     15570       133  CHL1      H16A          -10.6085617690      -26.7316387891       -8.2215200000  MEMB      133             0.0000000000
     15571       133  CHL1      H16B           -8.8780062811      -26.5734851959       -8.5770000000  MEMB      133             0.0000000000
     15572       133  CHL1      C17            -9.8500729818      -24.6947411002       -8.7851800000  MEMB      133             0.0000000000
     15573       133  CHL1      H17            -8.7810770051      -24.3928303530       -8.8055400000  MEMB      133             0.0000000000
     15574       133  CHL1      C13           -10.5354089919      -24.1418024326      -10.0590300000  MEMB      133             0.0000000000
     15575       133  CHL1      C18           -12.0741979235      -24.3517513718       -9.8898600000  MEMB      133             0.0000000000
     15576       133  CHL1      H18A          -12.3675950287      -25.3207144776       -9.4323200000  MEMB      133             0.0000000000
     15577       133  CHL1      H18B          -12.4745057382      -23.4864806368       -9.3194400000  MEMB      133             0.0000000000
     15578       133  CHL1      H18C          -12.5491416456      -24.3190954117      -10.8937000000  MEMB      133             0.0000000000
     15579       133  CHL1      C12           -10.1332929770      -22.7005343724      -10.5904600000  MEMB      133             0.0000000000
     15580       133  CHL1      H12A          -10.6004204864      -21.9869555703       -9.8784800000  MEMB      133             0.0000000000
     15581       133  CHL1      H12B           -9.0384604992      -22.5117423823      -10.5858900000  MEMB      133             0.0000000000
     15582       133  CHL1      C11           -10.7232302336      -22.5630615762      -12.0089900000  MEMB      133             0.0000000000
     15583       133  CHL1      H11A          -11.8284602329      -22.4515372696      -12.0279700000  MEMB      133             0.0000000000
     15584       133  CHL1      H11B          -10.2997862692      -21.6858539162      -12.5433300000  MEMB      133             0.0000000000
     15585       133  CHL1      C9            -10.2427219858      -23.7758716197      -13.0336400000  MEMB      133             0.0000000000
     15586       133  CHL1      H9             -9.1404832109      -23.7331489873      -12.9011700000  MEMB      133             0.0000000000
     15587       133  CHL1      C10           -10.6518915340      -23.5258280968      -14.5049500000  MEMB      133             0.0000000000
     15588       133  CHL1      C19           -12.1136696216      -23.0733634218      -14.7206400000  MEMB      133             0.0000000000
     15589       133  CHL1      H19A          -12.3538891866      -22.7897254083      -15.7676200000  MEMB      133             0.0000000000
     15590       133  CHL1      H19B          -12.8577636054      -23.8276778748      -14.3864900000  MEMB      133             0.0000000000
     15591       133  CHL1      H19C          -12.3347857280      -22.2295905329      -14.0325500000  MEMB      133             0.0000000000
     15592       133  CHL1      C1             -9.5966579751      -22.5188922317      -15.0666300000  MEMB      133             0.0000000000
     15593       133  CHL1      H1A            -9.7185254486      -21.5707318026      -14.5005500000  MEMB      133             0.0000000000
     15594       133  CHL1      H1B            -8.5994892638      -23.0011132507      -14.9803500000  MEMB      133             0.0000000000
     15595       133  CHL1      C2             -9.6039404699      -22.2046848189      -16.5557000000  MEMB      133             0.0000000000
     15596       133  CHL1      H2A            -8.8855022089      -21.4064595485      -16.8403000000  MEMB      133             0.0000000000
     15597       133  CHL1      H2B           -10.5801904618      -21.7524003124      -16.8326500000  MEMB      133             0.0000000000
     15598       133  CHL1      C20           -10.3452983666      -24.2943423779       -7.3208400000  MEMB      133             0.0000000000
     15599       133  CHL1      H20           -11.3727140371      -24.6920662445       -7.1774600000  MEMB      133             0.0000000000
     15600       133  CHL1      C21           -10.5027745905      -22.7798866613       -7.1254400000  MEMB      133             0.0000000000
     15601       133  CHL1      H21A           -9.5541843926      -22.2384090071       -7.3287000000  MEMB      133             0.0000000000
     15602       133  CHL1      H21B          -10.7430481496      -22.4739206658       -6.0847800000  MEMB      133             0.0000000000
     15603       133  CHL1      H21C          -11.4234952875      -22.4764502834       -7.6681300000  MEMB      133             0.0000000000
     15604       133  CHL1      C22            -9.4859272014      -25.0404067489       -6.2527800000  MEMB      133             0.0000000000
     15605       133  CHL1      H22A           -9.2151331659      -26.0962478653       -6.4676900000  MEMB      133             0.0000000000
     15606       133  CHL1      H22B           -8.4804118995      -24.5746227188       -6.3321500000  MEMB      133             0.0000000000
     15607       133  CHL1      C23            -9.7877570256      -24.8454347992       -4.7384800000  MEMB      133             0.0000000000
     15608       133  CHL1      H23A          -10.0374300326      -23.7757041199       -4.5721600000  MEMB      133             0.0000000000
     15609       133  CHL1      H23B          -10.6830877552      -25.4245213876       -4.4264400000  MEMB      133             0.0000000000
     15610       133  CHL1      C24            -8.5897618317      -25.1613819065       -3.8330800000  MEMB      133             0.0000000000
     15611       133  CHL1      H24A           -8.0009928608      -25.9963311657       -4.2695600000  MEMB      133             0.0000000000
     15612       133  CHL1      H24B           -7.8964205658      -24.2989336173       -3.7341400000  MEMB      133             0.0000000000
     15613       133  CHL1      C25            -8.9294391322      -25.6549815513       -2.3867000000  MEMB      133             0.0000000000
     15614       133  CHL1      H25            -9.7664477235      -26.3852712686       -2.3664400000  MEMB      133             0.0000000000
     15615       133  CHL1      C26            -7.6230590114      -26.3142558761       -1.7995300000  MEMB      133             0.0000000000
     15616       133  CHL1      H26A           -6.8503879649      -25.5238011894       -1.9112300000  MEMB      133             0.0000000000
     15617       133  CHL1      H26B           -7.6241274811      -26.4861162696       -0.7019100000  MEMB      133             0.0000000000
     15618       133  CHL1      H26C           -7.2253433698      -27.1734575388       -2.3808400000  MEMB      133             0.0000000000
     15619       133  CHL1      C27            -9.3743039298      -24.5970427565       -1.3638200000  MEMB      133             0.0000000000
     15620       133  CHL1      H27A           -9.4572031442      -24.9567684596       -0.3159400000  MEMB      133             0.0000000000
     15621       133  CHL1      H27B           -8.7171583555      -23.7019454242       -1.3279700000  MEMB      133             0.0000000000
     15622       133  CHL1      H27C          -10.3522941515      -24.2502548797       -1.7607900000  MEMB      133             0.0000000000
     15623       134  CHL1      C3            -16.6606086017       19.0437915292      -17.2923850000  MEMB      134             0.0000000000
     15624       134  CHL1      H3            -17.6822346342       19.2282280943      -16.8966750000  MEMB      134             0.0000000000
     15625       134  CHL1      O3            -16.5334091983       19.1223294708      -18.7076150000  MEMB      134             0.0000000000
     15626       134  CHL1      H3'           -16.4452367231       18.2221680160      -19.0293850000  MEMB      134             0.0000000000
     15627       134  CHL1      C4            -15.6822998360       20.1584774328      -16.5768750000  MEMB      134             0.0000000000
     15628       134  CHL1      H4A           -14.6529059365       20.0739774779      -16.9861850000  MEMB      134             0.0000000000
     15629       134  CHL1      H4B           -16.0190084887       21.1454653404      -16.9600150000  MEMB      134             0.0000000000
     15630       134  CHL1      C5            -15.7882027322       20.0654018234      -15.1090250000  MEMB      134             0.0000000000
     15631       134  CHL1      C6            -16.2437639028       21.0800994166      -14.3764450000  MEMB      134             0.0000000000
     15632       134  CHL1      H6            -16.3573967928       22.0778290659      -14.8254650000  MEMB      134             0.0000000000
     15633       134  CHL1      C7            -16.4005987130       20.9221639009      -12.8615450000  MEMB      134             0.0000000000
     15634       134  CHL1      H7A           -16.1511044058       21.8376512213      -12.2836650000  MEMB      134             0.0000000000
     15635       134  CHL1      H7B           -17.4688202003       20.6516669271      -12.7199350000  MEMB      134             0.0000000000
     15636       134  CHL1      C8            -15.6228533709       19.7785891298      -12.2303650000  MEMB      134             0.0000000000
     15637       134  CHL1      H8            -14.5312936573       19.9710271867      -12.3064550000  MEMB      134             0.0000000000
     15638       134  CHL1      C14           -15.9685306844       19.6638432914      -10.8132250000  MEMB      134             0.0000000000
     15639       134  CHL1      H14           -17.0629385184       19.4770832279      -10.7715950000  MEMB      134             0.0000000000
     15640       134  CHL1      C15           -15.9412932555       20.8623007398       -9.8451850000  MEMB      134             0.0000000000
     15641       134  CHL1      H15A          -14.9694524427       21.3896644987       -9.9535450000  MEMB      134             0.0000000000
     15642       134  CHL1      H15B          -16.6559440628       21.7105925078       -9.9084350000  MEMB      134             0.0000000000
     15643       134  CHL1      C16           -16.0157753763       20.2823849540       -8.4683450000  MEMB      134             0.0000000000
     15644       134  CHL1      H16A          -15.1064878662       20.5783530367       -7.9027250000  MEMB      134             0.0000000000
     15645       134  CHL1      H16B          -16.8522251463       20.6499752163       -7.8362350000  MEMB      134             0.0000000000
     15646       134  CHL1      C17           -15.9953628365       18.7314240098       -8.6475050000  MEMB      134             0.0000000000
     15647       134  CHL1      H17           -17.0242939933       18.3221799048       -8.7376950000  MEMB      134             0.0000000000
     15648       134  CHL1      C13           -15.3035304875       18.4744510755      -10.0196350000  MEMB      134             0.0000000000
     15649       134  CHL1      C18           -13.7637719328       18.7426492020       -9.9742850000  MEMB      134             0.0000000000
     15650       134  CHL1      H18A          -13.4551245828       18.7762151840      -11.0410150000  MEMB      134             0.0000000000
     15651       134  CHL1      H18B          -13.5154048604       19.6281521625       -9.3509750000  MEMB      134             0.0000000000
     15652       134  CHL1      H18C          -13.2865508475       17.7990052913       -9.6335050000  MEMB      134             0.0000000000
     15653       134  CHL1      C12           -15.7138660399       17.2167792237      -10.7417450000  MEMB      134             0.0000000000
     15654       134  CHL1      H12A          -15.3332578742       16.2375459570      -10.3803950000  MEMB      134             0.0000000000
     15655       134  CHL1      H12B          -16.8065781280       17.0652539292      -10.8733950000  MEMB      134             0.0000000000
     15656       134  CHL1      C11           -15.3152617054       17.2480999805      -12.3061350000  MEMB      134             0.0000000000
     15657       134  CHL1      H11A          -14.2060916520       17.3075131874      -12.3293250000  MEMB      134             0.0000000000
     15658       134  CHL1      H11B          -15.6331701072       16.2882582447      -12.7665150000  MEMB      134             0.0000000000
     15659       134  CHL1      C9            -15.8698956463       18.5326973408      -13.0088550000  MEMB      134             0.0000000000
     15660       134  CHL1      H9            -16.9765145886       18.4466197094      -13.0568250000  MEMB      134             0.0000000000
     15661       134  CHL1      C10           -15.5605104177       18.6222435151      -14.4909950000  MEMB      134             0.0000000000
     15662       134  CHL1      C19           -14.0920337131       18.3178096711      -14.7352850000  MEMB      134             0.0000000000
     15663       134  CHL1      H19A          -13.3897536487       19.0813123455      -14.3375650000  MEMB      134             0.0000000000
     15664       134  CHL1      H19B          -13.8613646266       17.2655788996      -14.4633950000  MEMB      134             0.0000000000
     15665       134  CHL1      H19C          -13.8857353781       18.3480163639      -15.8265450000  MEMB      134             0.0000000000
     15666       134  CHL1      C1            -16.4162766687       17.5254867692      -15.2419350000  MEMB      134             0.0000000000
     15667       134  CHL1      H1A           -16.0827596324       16.4846644025      -15.0424650000  MEMB      134             0.0000000000
     15668       134  CHL1      H1B           -17.4954204886       17.7187426670      -15.0618350000  MEMB      134             0.0000000000
     15669       134  CHL1      C2            -16.3210014894       17.6730157314      -16.8415450000  MEMB      134             0.0000000000
     15670       134  CHL1      H2A           -17.0549725968       16.9127890898      -17.1845750000  MEMB      134             0.0000000000
     15671       134  CHL1      H2B           -15.2938313343       17.3384968222      -17.1010650000  MEMB      134             0.0000000000
     15672       134  CHL1      C20           -15.3399500726       18.0178434775       -7.3623850000  MEMB      134             0.0000000000
     15673       134  CHL1      H20           -14.2816833790       18.3414526201       -7.2640750000  MEMB      134             0.0000000000
     15674       134  CHL1      C21           -15.3977921618       16.4444604384       -7.5470850000  MEMB      134             0.0000000000
     15675       134  CHL1      H21A          -14.5850205060       16.1051743085       -8.2242950000  MEMB      134             0.0000000000
     15676       134  CHL1      H21B          -16.3602739373       16.0376578546       -7.9245350000  MEMB      134             0.0000000000
     15677       134  CHL1      H21C          -15.0165370568       15.9219719303       -6.6437650000  MEMB      134             0.0000000000
     15678       134  CHL1      C22           -16.0374878662       18.3813766445       -6.0362650000  MEMB      134             0.0000000000
     15679       134  CHL1      H22A          -15.6093231388       17.9781317136       -5.0937150000  MEMB      134             0.0000000000
     15680       134  CHL1      H22B          -15.9564979449       19.4797445402       -5.8901750000  MEMB      134             0.0000000000
     15681       134  CHL1      C23           -17.5198528110       17.9282810555       -6.0616250000  MEMB      134             0.0000000000
     15682       134  CHL1      H23A          -18.1942951029       18.4590387841       -6.7671350000  MEMB      134             0.0000000000
     15683       134  CHL1      H23B          -17.6789625103       16.8648725629       -6.3411750000  MEMB      134             0.0000000000
     15684       134  CHL1      C24           -18.0867915888       18.1751977846       -4.6621950000  MEMB      134             0.0000000000
     15685       134  CHL1      H24A          -17.4234267191       17.6355125303       -3.9529650000  MEMB      134             0.0000000000
     15686       134  CHL1      H24B          -18.0973993417       19.2515297783       -4.3870150000  MEMB      134             0.0000000000
     15687       134  CHL1      C25           -19.5172833702       17.6963294850       -4.3896550000  MEMB      134             0.0000000000
     15688       134  CHL1      H25           -19.5632031764       16.6215879481       -4.6673950000  MEMB      134             0.0000000000
     15689       134  CHL1      C26           -19.8743783683       17.8297076826       -2.8818650000  MEMB      134             0.0000000000
     15690       134  CHL1      H26A          -20.9239324084       17.5245249061       -2.6828050000  MEMB      134             0.0000000000
     15691       134  CHL1      H26B          -19.1805997325       17.4129549522       -2.1207450000  MEMB      134             0.0000000000
     15692       134  CHL1      H26C          -19.9027666736       18.9215528758       -2.6784250000  MEMB      134             0.0000000000
     15693       134  CHL1      C27           -20.5819321637       18.4566244069       -5.1544650000  MEMB      134             0.0000000000
     15694       134  CHL1      H27A          -21.5342415580       18.0281806687       -4.7751450000  MEMB      134             0.0000000000
     15695       134  CHL1      H27B          -20.6204382153       19.5349966786       -4.8899650000  MEMB      134             0.0000000000
     15696       134  CHL1      H27C          -20.4697746137       18.2444963209       -6.2392450000  MEMB      134             0.0000000000
     15697       135  CHL1      C3             11.6621146342      -23.6286656065      -17.4087100000  MEMB      135             0.0000000000
     15698       135  CHL1      H3             12.5597037569      -22.9866475496      -17.5370800000  MEMB      135             0.0000000000
     15699       135  CHL1      O3             10.8991021658      -23.9002971935      -18.5912900000  MEMB      135             0.0000000000
     15700       135  CHL1      H3'            11.1036197413      -23.1722678409      -19.1826900000  MEMB      135             0.0000000000
     15701       135  CHL1      C4             12.1491263084      -24.9701956957      -16.8551100000  MEMB      135             0.0000000000
     15702       135  CHL1      H4A            11.2854010709      -25.6410870081      -16.6596600000  MEMB      135             0.0000000000
     15703       135  CHL1      H4B            12.7462329891      -25.4507657148      -17.6593800000  MEMB      135             0.0000000000
     15704       135  CHL1      C5             12.9344883329      -24.8971277587      -15.6094800000  MEMB      135             0.0000000000
     15705       135  CHL1      C6             14.1888600938      -25.5117530390      -15.5196900000  MEMB      135             0.0000000000
     15706       135  CHL1      H6             14.5376947890      -26.1843273512      -16.3171500000  MEMB      135             0.0000000000
     15707       135  CHL1      C7             15.1675720687      -25.4718603595      -14.3918200000  MEMB      135             0.0000000000
     15708       135  CHL1      H7A            15.4426263890      -26.4960484671      -14.0606200000  MEMB      135             0.0000000000
     15709       135  CHL1      H7B            16.1242620888      -24.9637390570      -14.6385400000  MEMB      135             0.0000000000
     15710       135  CHL1      C8             14.4380372426      -24.8103959381      -13.1902500000  MEMB      135             0.0000000000
     15711       135  CHL1      H8             13.9074238931      -25.6012196038      -12.6180900000  MEMB      135             0.0000000000
     15712       135  CHL1      C14            15.5904284733      -24.2973388595      -12.3072500000  MEMB      135             0.0000000000
     15713       135  CHL1      H14            15.9066259859      -23.3420275099      -12.7781200000  MEMB      135             0.0000000000
     15714       135  CHL1      C15            16.8686187489      -25.0910813979      -12.0304900000  MEMB      135             0.0000000000
     15715       135  CHL1      H15A           16.5587967882      -26.1510781526      -11.9090100000  MEMB      135             0.0000000000
     15716       135  CHL1      H15B           17.5105100767      -24.9313312369      -12.9231100000  MEMB      135             0.0000000000
     15717       135  CHL1      C16            17.4648074406      -24.4470666344      -10.7466900000  MEMB      135             0.0000000000
     15718       135  CHL1      H16A           17.6649613180      -25.2901518592      -10.0513600000  MEMB      135             0.0000000000
     15719       135  CHL1      H16B           18.4460665843      -23.9771514436      -10.9716600000  MEMB      135             0.0000000000
     15720       135  CHL1      C17            16.4891086553      -23.3564443176      -10.2807800000  MEMB      135             0.0000000000
     15721       135  CHL1      H17            16.7624075395      -22.4834739850      -10.9113000000  MEMB      135             0.0000000000
     15722       135  CHL1      C13            15.1522194799      -23.6949773078      -10.8917100000  MEMB      135             0.0000000000
     15723       135  CHL1      C18            14.4063629839      -24.8036551415      -10.0783600000  MEMB      135             0.0000000000
     15724       135  CHL1      H18A           13.4765067812      -25.1765208019      -10.5586400000  MEMB      135             0.0000000000
     15725       135  CHL1      H18B           15.1945147795      -25.5687436132       -9.9117400000  MEMB      135             0.0000000000
     15726       135  CHL1      H18C           14.0891861184      -24.4851775712       -9.0623400000  MEMB      135             0.0000000000
     15727       135  CHL1      C12            14.1739485353      -22.5593511467      -11.1488400000  MEMB      135             0.0000000000
     15728       135  CHL1      H12A           13.8532873468      -22.2705881720      -10.1250700000  MEMB      135             0.0000000000
     15729       135  CHL1      H12B           14.7660818178      -21.7446134423      -11.6177700000  MEMB      135             0.0000000000
     15730       135  CHL1      C11            13.0388349372      -22.9734948702      -12.1621800000  MEMB      135             0.0000000000
     15731       135  CHL1      H11A           12.3724911537      -23.6573251984      -11.5941200000  MEMB      135             0.0000000000
     15732       135  CHL1      H11B           12.2865360747      -22.1935889698      -12.4073800000  MEMB      135             0.0000000000
     15733       135  CHL1      C9             13.5077615545      -23.6467999120      -13.4564100000  MEMB      135             0.0000000000
     15734       135  CHL1      H9             14.1399704129      -22.9273124403      -14.0194200000  MEMB      135             0.0000000000
     15735       135  CHL1      C10            12.3810685636      -24.0818193601      -14.4273300000  MEMB      135             0.0000000000
     15736       135  CHL1      C19            11.3461193608      -25.0406836343      -13.7669000000  MEMB      135             0.0000000000
     15737       135  CHL1      H19A           10.6657388894      -25.4035320898      -14.5667400000  MEMB      135             0.0000000000
     15738       135  CHL1      H19B           11.8605317658      -25.8925516065      -13.2729100000  MEMB      135             0.0000000000
     15739       135  CHL1      H19C           10.6716992381      -24.4857340469      -13.0802400000  MEMB      135             0.0000000000
     15740       135  CHL1      C1             11.6657701822      -22.8102060088      -14.9761700000  MEMB      135             0.0000000000
     15741       135  CHL1      H1A            11.0571398118      -22.3285836700      -14.1812400000  MEMB      135             0.0000000000
     15742       135  CHL1      H1B            12.4825691208      -22.0970365818      -15.2181500000  MEMB      135             0.0000000000
     15743       135  CHL1      C2             10.8553038476      -22.9686379974      -16.3070600000  MEMB      135             0.0000000000
     15744       135  CHL1      H2A            10.5508426129      -21.9809127187      -16.7145100000  MEMB      135             0.0000000000
     15745       135  CHL1      H2B             9.9976046449      -23.6480573697      -16.1145300000  MEMB      135             0.0000000000
     15746       135  CHL1      C20            16.6061648339      -22.8688251573       -8.7540800000  MEMB      135             0.0000000000
     15747       135  CHL1      H20            15.6366560433      -22.3761114325       -8.5269100000  MEMB      135             0.0000000000
     15748       135  CHL1      C21            17.7231353516      -21.7870801918       -8.5942700000  MEMB      135             0.0000000000
     15749       135  CHL1      H21A           17.3883273076      -20.8324313725       -9.0534800000  MEMB      135             0.0000000000
     15750       135  CHL1      H21B           18.7355437732      -22.0760202692       -8.9490200000  MEMB      135             0.0000000000
     15751       135  CHL1      H21C           17.7878817684      -21.6117667351       -7.4991000000  MEMB      135             0.0000000000
     15752       135  CHL1      C22            16.7150619892      -24.0346192767       -7.7026100000  MEMB      135             0.0000000000
     15753       135  CHL1      H22A           15.7944841650      -24.6542890517       -7.7562100000  MEMB      135             0.0000000000
     15754       135  CHL1      H22B           17.6444107181      -24.6001548666       -7.9279900000  MEMB      135             0.0000000000
     15755       135  CHL1      C23            16.7111134783      -23.6381753395       -6.2793300000  MEMB      135             0.0000000000
     15756       135  CHL1      H23A           17.7586837359      -23.3381084311       -6.0627800000  MEMB      135             0.0000000000
     15757       135  CHL1      H23B           16.0301163847      -22.7612768113       -6.2392400000  MEMB      135             0.0000000000
     15758       135  CHL1      C24            16.2690948039      -24.6751905821       -5.2319300000  MEMB      135             0.0000000000
     15759       135  CHL1      H24A           15.1645978091      -24.6086982323       -5.1319100000  MEMB      135             0.0000000000
     15760       135  CHL1      H24B           16.5227733154      -25.7071436171       -5.5560400000  MEMB      135             0.0000000000
     15761       135  CHL1      C25            16.8573030701      -24.4679386432       -3.8316500000  MEMB      135             0.0000000000
     15762       135  CHL1      H25            16.5979154579      -23.4534383865       -3.4604200000  MEMB      135             0.0000000000
     15763       135  CHL1      C26            16.2961439866      -25.5361127599       -2.8976100000  MEMB      135             0.0000000000
     15764       135  CHL1      H26A           15.2073773820      -25.3310519438       -2.8148000000  MEMB      135             0.0000000000
     15765       135  CHL1      H26B           16.5770695249      -26.5542843568       -3.2421800000  MEMB      135             0.0000000000
     15766       135  CHL1      H26C           16.6641884303      -25.2309002568       -1.8947500000  MEMB      135             0.0000000000
     15767       135  CHL1      C27            18.3997358586      -24.7354474866       -3.8854000000  MEMB      135             0.0000000000
     15768       135  CHL1      H27A           18.8425531587      -23.8049223913       -4.3005300000  MEMB      135             0.0000000000
     15769       135  CHL1      H27B           18.7782975210      -25.0971632947       -2.9055100000  MEMB      135             0.0000000000
     15770       135  CHL1      H27C           18.6339470693      -25.5890379409       -4.5568600000  MEMB      135             0.0000000000
     15771       136  SOPE      N               2.5985066489      -28.9578840975      -20.9513758238  MEMB      136             0.0000000000
     15772       136  SOPE      HN1             1.7645199821      -29.3754260938      -20.4912402525  MEMB      136             0.0000000000
     15773       136  SOPE      HN2             2.5394285841      -27.9200128329      -20.9819251701  MEMB      136             0.0000000000
     15774       136  SOPE      HN3             2.7277528020      -29.3897935472      -21.8885788632  MEMB      136             0.0000000000
     15775       136  SOPE      C12             3.9206656900      -29.1492324762      -20.2767050266  MEMB      136             0.0000000000
     15776       136  SOPE      H12A            4.2882703877      -30.1924288226      -20.3812481958  MEMB      136             0.0000000000
     15777       136  SOPE      H12B            3.8213584463      -29.0091461721      -19.1790553691  MEMB      136             0.0000000000
     15778       136  SOPE      C11             4.8822687440      -28.0314718608      -20.7272286421  MEMB      136             0.0000000000
     15779       136  SOPE      H11A            4.8670188998      -28.2427096885      -21.8178555087  MEMB      136             0.0000000000
     15780       136  SOPE      H11B            5.8667584833      -28.1607986517      -20.2288557730  MEMB      136             0.0000000000
     15781       136  SOPE      P               4.9775828229      -25.4787331653      -21.2828942679  MEMB      136             0.0000000000
     15782       136  SOPE      O13             3.8909829507      -24.8438257924      -22.1017529304  MEMB      136             0.0000000000
     15783       136  SOPE      O14             6.1980096398      -25.8181286094      -22.0370489792  MEMB      136             0.0000000000
     15784       136  SOPE      O12             4.3683092610      -26.7397217990      -20.4811672602  MEMB      136             0.0000000000
     15785       136  SOPE      O11             5.4813521528      -24.3795779261      -20.1418270664  MEMB      136             0.0000000000
     15786       136  SOPE      C1              4.4740916629      -24.1327974091      -19.1385220184  MEMB      136             0.0000000000
     15787       136  SOPE      HA              3.9997817674      -25.0705248296      -18.7779414287  MEMB      136             0.0000000000
     15788       136  SOPE      HB              3.6712913106      -23.5410279129      -19.6280538213  MEMB      136             0.0000000000
     15789       136  SOPE      C2              5.1365174174      -23.2991304675      -17.9881439892  MEMB      136             0.0000000000
     15790       136  SOPE      HS              5.4162066863      -22.3098890132      -18.4094468920  MEMB      136             0.0000000000
     15791       136  SOPE      O21             6.3436358075      -23.9604894591      -17.5548975699  MEMB      136             0.0000000000
     15792       136  SOPE      C21             7.4317531625      -23.2988795183      -17.2810245312  MEMB      136             0.0000000000
     15793       136  SOPE      O22             7.4978080332      -22.0991729619      -17.1757465893  MEMB      136             0.0000000000
     15794       136  SOPE      C22             8.5997930234      -24.3296792520      -17.0739518742  MEMB      136             0.0000000000
     15795       136  SOPE      H2R             9.5422765949      -23.8765444608      -17.4490712110  MEMB      136             0.0000000000
     15796       136  SOPE      H2S             8.4350124677      -25.3169901672      -17.5560159278  MEMB      136             0.0000000000
     15797       136  SOPE      C3              4.1570045172      -23.1667805699      -16.7970824500  MEMB      136             0.0000000000
     15798       136  SOPE      HX              3.2494267824      -22.5608823053      -17.0056746838  MEMB      136             0.0000000000
     15799       136  SOPE      HY              4.7878152078      -22.6255320763      -16.0598924075  MEMB      136             0.0000000000
     15800       136  SOPE      O31             3.7652921927      -24.4778608098      -16.3123313686  MEMB      136             0.0000000000
     15801       136  SOPE      C31             3.3237097550      -24.4857332483      -15.0277084740  MEMB      136             0.0000000000
     15802       136  SOPE      O32             3.2903049030      -23.5112235066      -14.2892592326  MEMB      136             0.0000000000
     15803       136  SOPE      C32             2.8304767229      -25.9103352736      -14.6754976553  MEMB      136             0.0000000000
     15804       136  SOPE      H2X             3.7043799050      -26.5867211979      -14.5609698382  MEMB      136             0.0000000000
     15805       136  SOPE      H2Y             2.2677795279      -26.3017925400      -15.5498281156  MEMB      136             0.0000000000
     15806       136  SOPE      C23             8.8610220493      -24.4739902389      -15.5326270479  MEMB      136             0.0000000000
     15807       136  SOPE      H3R             8.8474278401      -23.5028991121      -14.9930730894  MEMB      136             0.0000000000
     15808       136  SOPE      H3S             9.9006571240      -24.8445826388      -15.4055797381  MEMB      136             0.0000000000
     15809       136  SOPE      C24             7.9341404887      -25.4732784529      -14.8505223611  MEMB      136             0.0000000000
     15810       136  SOPE      H4R             6.8798423468      -25.1587710963      -15.0049939066  MEMB      136             0.0000000000
     15811       136  SOPE      H4S             8.0390318769      -26.4324980441      -15.4011736029  MEMB      136             0.0000000000
     15812       136  SOPE      C25             8.1739815414      -25.8800997873      -13.4807916915  MEMB      136             0.0000000000
     15813       136  SOPE      H5R             7.6662302125      -26.8502989736      -13.2931141021  MEMB      136             0.0000000000
     15814       136  SOPE      H5S             9.2785606938      -25.9711454124      -13.4037440551  MEMB      136             0.0000000000
     15815       136  SOPE      C26             7.7390294153      -24.7801512937      -12.4248778639  MEMB      136             0.0000000000
     15816       136  SOPE      H6R             8.6295067240      -24.5823829403      -11.7906391569  MEMB      136             0.0000000000
     15817       136  SOPE      H6S             7.5219863226      -23.8115715132      -12.9239435913  MEMB      136             0.0000000000
     15818       136  SOPE      C27             6.6254795118      -25.2105085384      -11.5166165082  MEMB      136             0.0000000000
     15819       136  SOPE      H7R             5.8639124599      -25.7688684874      -12.1019125825  MEMB      136             0.0000000000
     15820       136  SOPE      H7S             7.0650481624      -25.8055298348      -10.6877318746  MEMB      136             0.0000000000
     15821       136  SOPE      C28             5.9565908711      -24.0000571133      -10.8341795091  MEMB      136             0.0000000000
     15822       136  SOPE      H8R             5.2553112833      -23.5162552269      -11.5472459157  MEMB      136             0.0000000000
     15823       136  SOPE      H8S             5.3324167021      -24.5244789330      -10.0793880978  MEMB      136             0.0000000000
     15824       136  SOPE      C29             6.8884263471      -22.9885474504      -10.1633672228  MEMB      136             0.0000000000
     15825       136  SOPE      H91             7.2442773999      -22.1284424709      -10.7495313356  MEMB      136             0.0000000000
     15826       136  SOPE      C210            7.2754993102      -22.9310151442       -8.8447065901  MEMB      136             0.0000000000
     15827       136  SOPE      H101            7.9196608779      -22.1090340779       -8.4991588422  MEMB      136             0.0000000000
     15828       136  SOPE      C211            6.8836483800      -23.8203174078       -7.6724815096  MEMB      136             0.0000000000
     15829       136  SOPE      H11R            5.8794752671      -24.1841107319       -7.9784412780  MEMB      136             0.0000000000
     15830       136  SOPE      H11S            6.5638938546      -23.2025137406       -6.8062273088  MEMB      136             0.0000000000
     15831       136  SOPE      C212            7.7666657063      -24.9956629919       -7.3636431022  MEMB      136             0.0000000000
     15832       136  SOPE      H12R            8.5946335153      -24.5282078366       -6.7889468070  MEMB      136             0.0000000000
     15833       136  SOPE      H12S            8.0583500859      -25.6435322821       -8.2177552166  MEMB      136             0.0000000000
     15834       136  SOPE      C213            7.0443824464      -26.0347422042       -6.5017053478  MEMB      136             0.0000000000
     15835       136  SOPE      H13R            7.7993426952      -26.8369562400       -6.3574538332  MEMB      136             0.0000000000
     15836       136  SOPE      H13S            6.1987916401      -26.4492000773       -7.0912148187  MEMB      136             0.0000000000
     15837       136  SOPE      C214            6.5768327445      -25.5189074473       -5.1438111446  MEMB      136             0.0000000000
     15838       136  SOPE      H14R            5.5706139628      -25.0834372291       -5.3232850385  MEMB      136             0.0000000000
     15839       136  SOPE      H14S            7.2022054302      -24.6582460955       -4.8236671910  MEMB      136             0.0000000000
     15840       136  SOPE      C215            6.3722109726      -26.5356984186       -4.0731074025  MEMB      136             0.0000000000
     15841       136  SOPE      H15R            7.3056360312      -27.1336186966       -3.9987423876  MEMB      136             0.0000000000
     15842       136  SOPE      H15S            5.5786836161      -27.2705476687       -4.3273340187  MEMB      136             0.0000000000
     15843       136  SOPE      C216            6.1976647877      -25.9451085641       -2.6532542553  MEMB      136             0.0000000000
     15844       136  SOPE      H16R            7.0641875865      -25.3009353400       -2.3915286973  MEMB      136             0.0000000000
     15845       136  SOPE      H16S            6.2947563681      -26.8454034392       -2.0095445855  MEMB      136             0.0000000000
     15846       136  SOPE      C217            4.9185839260      -25.1383917929       -2.5342883891  MEMB      136             0.0000000000
     15847       136  SOPE      H17R            4.7741205855      -24.4005348274       -3.3522243638  MEMB      136             0.0000000000
     15848       136  SOPE      H17S            5.0012583690      -24.6031978077       -1.5642095254  MEMB      136             0.0000000000
     15849       136  SOPE      C218            3.6744455392      -25.9681617188       -2.2441768502  MEMB      136             0.0000000000
     15850       136  SOPE      H18R            3.9852045103      -26.7960608788       -1.5716207616  MEMB      136             0.0000000000
     15851       136  SOPE      H18S            3.3803497085      -26.4677041547       -3.1919566899  MEMB      136             0.0000000000
     15852       136  SOPE      H18T            2.8663235480      -25.3055726534       -1.8670360428  MEMB      136             0.0000000000
     15853       136  SOPE      C33             2.0316248851      -26.0363686253      -13.3675554195  MEMB      136             0.0000000000
     15854       136  SOPE      H3X             1.0147842743      -25.6771095014      -13.6345552693  MEMB      136             0.0000000000
     15855       136  SOPE      H3Y             2.4508922651      -25.3676336394      -12.5856799404  MEMB      136             0.0000000000
     15856       136  SOPE      C34             2.0882611550      -27.3927515737      -12.7275097197  MEMB      136             0.0000000000
     15857       136  SOPE      H4X             3.0129857112      -27.9064796798      -13.0670516649  MEMB      136             0.0000000000
     15858       136  SOPE      H4Y             1.1536871047      -27.9860626873      -12.8217117045  MEMB      136             0.0000000000
     15859       136  SOPE      C35             2.0974374199      -27.2958777993      -11.2103168220  MEMB      136             0.0000000000
     15860       136  SOPE      H5X             1.3570863384      -26.5121985745      -10.9418988976  MEMB      136             0.0000000000
     15861       136  SOPE      H5Y             3.1134466523      -26.9796307520      -10.8908895408  MEMB      136             0.0000000000
     15862       136  SOPE      C36             1.8118527792      -28.5850143892      -10.3587092152  MEMB      136             0.0000000000
     15863       136  SOPE      H6X             2.6728287688      -29.2833360497      -10.4321143152  MEMB      136             0.0000000000
     15864       136  SOPE      H6Y             0.9550541664      -29.0974644947      -10.8461624725  MEMB      136             0.0000000000
     15865       136  SOPE      C37             1.5395110590      -28.1350335997       -8.8601374276  MEMB      136             0.0000000000
     15866       136  SOPE      H7X             0.8123536896      -28.7670603561       -8.3068694013  MEMB      136             0.0000000000
     15867       136  SOPE      H7Y             1.2462164201      -27.0707124492       -8.9847154918  MEMB      136             0.0000000000
     15868       136  SOPE      C38             2.6494045055      -27.8488168078       -7.8673136590  MEMB      136             0.0000000000
     15869       136  SOPE      H8X             2.2408894862      -27.2545742557       -7.0221440320  MEMB      136             0.0000000000
     15870       136  SOPE      H8Y             3.3100473479      -27.1530964446       -8.4275332941  MEMB      136             0.0000000000
     15871       136  SOPE      C39             3.4381213234      -29.1214579082       -7.5005716210  MEMB      136             0.0000000000
     15872       136  SOPE      H9X             4.3013929822      -28.7277705982       -6.9225639222  MEMB      136             0.0000000000
     15873       136  SOPE      H9Y             3.8195968246      -29.8102654444       -8.2843713964  MEMB      136             0.0000000000
     15874       136  SOPE      C310            2.6221379365      -30.0096716964       -6.5206772735  MEMB      136             0.0000000000
     15875       136  SOPE      H10X            1.7701529861      -30.4885772391       -7.0489691617  MEMB      136             0.0000000000
     15876       136  SOPE      H10Y            2.2106630392      -29.3647927032       -5.7149848267  MEMB      136             0.0000000000
     15877       136  SOPE      C311            3.5022721401      -31.1869801385       -5.9032071327  MEMB      136             0.0000000000
     15878       136  SOPE      H11X            3.7065644776      -31.7999690988       -6.8069935856  MEMB      136             0.0000000000
     15879       136  SOPE      H11Y            2.8748908962      -31.6817088767       -5.1312247866  MEMB      136             0.0000000000
     15880       136  SOPE      C312            4.7231833056      -30.6952600010       -5.1141284804  MEMB      136             0.0000000000
     15881       136  SOPE      H12X            4.2931609244      -29.8620388964       -4.5181885219  MEMB      136             0.0000000000
     15882       136  SOPE      H12Y            5.4935265485      -30.3832181211       -5.8513675074  MEMB      136             0.0000000000
     15883       136  SOPE      C313            5.5140331319      -31.6868956652       -4.1826343093  MEMB      136             0.0000000000
     15884       136  SOPE      H13X            6.3954703205      -31.1390741305       -3.7860473382  MEMB      136             0.0000000000
     15885       136  SOPE      H13Y            5.9540212520      -32.4991749167       -4.7998324042  MEMB      136             0.0000000000
     15886       136  SOPE      C314            4.7084467035      -32.2171217543       -3.0279254661  MEMB      136             0.0000000000
     15887       136  SOPE      H14X            5.2887658546      -32.9557375946       -2.4346343027  MEMB      136             0.0000000000
     15888       136  SOPE      H14Y            3.9241235529      -32.9295422983       -3.3620159863  MEMB      136             0.0000000000
     15889       136  SOPE      C315            4.1006936191      -31.1594724459       -2.1175720050  MEMB      136             0.0000000000
     15890       136  SOPE      H15X            3.0031391824      -31.1824413677       -2.2883589729  MEMB      136             0.0000000000
     15891       136  SOPE      H15Y            4.4703290059      -30.1189018042       -2.2396521148  MEMB      136             0.0000000000
     15892       136  SOPE      C316            4.4095740730      -31.4184238868       -0.6418342467  MEMB      136             0.0000000000
     15893       136  SOPE      H16X            4.5369111262      -32.4986082338       -0.4153206437  MEMB      136             0.0000000000
     15894       136  SOPE      H16Y            3.5290356147      -31.0764227399       -0.0570198283  MEMB      136             0.0000000000
     15895       136  SOPE      C317            5.5445135219      -30.5736046683        0.0260173198  MEMB      136             0.0000000000
     15896       136  SOPE      H17X            5.3532821696      -30.5725625688        1.1204349425  MEMB      136             0.0000000000
     15897       136  SOPE      H17Y            5.4395070246      -29.5097988723       -0.2766580716  MEMB      136             0.0000000000
     15898       136  SOPE      C318            6.9463593190      -30.9338341949       -0.3754977887  MEMB      136             0.0000000000
     15899       136  SOPE      H18X            7.1906225832      -30.9656333403       -1.4588467131  MEMB      136             0.0000000000
     15900       136  SOPE      H18Y            7.3056950076      -31.9653632238       -0.1726527686  MEMB      136             0.0000000000
     15901       136  SOPE      H18Z            7.6812703997      -30.2537729397        0.1058981607  MEMB      136             0.0000000000
     15902       137  OSM       N             -28.8134332953        1.4437100320      -21.5525033602  MEMB      137             0.0000000000
     15903       137  OSM       C15           -30.0846377539        0.7022900129      -21.2066622079  MEMB      137             0.0000000000
     15904       137  OSM       H15A          -30.7551011609        0.8552104363      -22.0394250866  MEMB      137             0.0000000000
     15905       137  OSM       H15B          -30.4764684451        0.8968161207      -20.2192269679  MEMB      137             0.0000000000
     15906       137  OSM       H15C          -29.8364739232       -0.3363892342      -21.3677839223  MEMB      137             0.0000000000
     15907       137  OSM       C14           -28.0851685307        0.9018164323      -22.7058708897  MEMB      137             0.0000000000
     15908       137  OSM       H14A          -27.5738047119        1.7187335590      -23.1932654368  MEMB      137             0.0000000000
     15909       137  OSM       H14B          -28.6736620232        0.4922439126      -23.5135378096  MEMB      137             0.0000000000
     15910       137  OSM       H14C          -27.4780440932        0.0418009355      -22.4646794532  MEMB      137             0.0000000000
     15911       137  OSM       C13           -29.2449085818        2.8575910288      -21.8689230750  MEMB      137             0.0000000000
     15912       137  OSM       H13A          -29.9688915942        3.1911316096      -21.1402260185  MEMB      137             0.0000000000
     15913       137  OSM       H13B          -29.7315624695        2.9688435744      -22.8266239858  MEMB      137             0.0000000000
     15914       137  OSM       H13C          -28.3602091588        3.4763822995      -21.8972819651  MEMB      137             0.0000000000
     15915       137  OSM       C12           -27.9729004008        1.4933571781      -20.2871064910  MEMB      137             0.0000000000
     15916       137  OSM       H12A          -28.5993138071        1.7797004317      -19.4552328007  MEMB      137             0.0000000000
     15917       137  OSM       H12B          -27.2465837729        2.2868851745      -20.3829056705  MEMB      137             0.0000000000
     15918       137  OSM       C11           -27.3049700050        0.1502059235      -19.8986569784  MEMB      137             0.0000000000
     15919       137  OSM       H11A          -28.0712814105       -0.6474906945      -20.0024261909  MEMB      137             0.0000000000
     15920       137  OSM       H11B          -26.9241101356        0.1298262819      -18.8551765206  MEMB      137             0.0000000000
     15921       137  OSM       P             -24.8911368387        0.6625005873      -20.7527176105  MEMB      137             0.0000000000
     15922       137  OSM       O13           -23.6816995823       -0.1140374861      -21.1628981440  MEMB      137             0.0000000000
     15923       137  OSM       O14           -25.2157254300        1.8405725801      -21.6437895904  MEMB      137             0.0000000000
     15924       137  OSM       O11           -24.7845853148        1.1258368093      -19.2338068496  MEMB      137             0.0000000000
     15925       137  OSM       O12           -26.1748571683       -0.2557357173      -20.6870648033  MEMB      137             0.0000000000
     15926       137  OSM       C1S           -24.2857308349        0.1903839416      -18.2444410965  MEMB      137             0.0000000000
     15927       137  OSM       H1S           -23.2067584981        0.0613040061      -18.4756950769  MEMB      137             0.0000000000
     15928       137  OSM       H1T           -24.8374062844       -0.7736550419      -18.2690208487  MEMB      137             0.0000000000
     15929       137  OSM       NF            -25.8323472378        1.0486503320      -16.4974626000  MEMB      137             0.0000000000
     15930       137  OSM       HNF           -26.0639205369        1.9797190634      -16.7685598519  MEMB      137             0.0000000000
     15931       137  OSM       C2S           -24.4345469359        0.8854572069      -16.8559022197  MEMB      137             0.0000000000
     15932       137  OSM       H2S           -24.0299396865        0.1289186945      -16.1500245640  MEMB      137             0.0000000000
     15933       137  OSM       C3S           -23.7249843512        2.2319058033      -16.8227774446  MEMB      137             0.0000000000
     15934       137  OSM       H3S           -24.2540505792        2.9472124897      -17.4881693456  MEMB      137             0.0000000000
     15935       137  OSM       O3            -22.4527494331        2.1267302876      -17.4183043514  MEMB      137             0.0000000000
     15936       137  OSM       HO3           -22.3562241171        1.2145268825      -17.7014434982  MEMB      137             0.0000000000
     15937       137  OSM       C4S           -23.6815484664        2.8362103137      -15.4325857793  MEMB      137             0.0000000000
     15938       137  OSM       H4S           -24.5544704621        3.4888247746      -15.2839195410  MEMB      137             0.0000000000
     15939       137  OSM       C5S           -22.8171797238        2.5739994872      -14.4326730386  MEMB      137             0.0000000000
     15940       137  OSM       H5S           -22.0912804035        1.7578271715      -14.5628002559  MEMB      137             0.0000000000
     15941       137  OSM       C6S           -22.8298594597        3.1117933641      -13.0769950844  MEMB      137             0.0000000000
     15942       137  OSM       H6S           -23.3715519383        4.0755515645      -12.9671757866  MEMB      137             0.0000000000
     15943       137  OSM       H6T           -21.7976505956        3.2924567299      -12.7079062311  MEMB      137             0.0000000000
     15944       137  OSM       C7S           -23.4659085597        2.1535944903      -12.0178433990  MEMB      137             0.0000000000
     15945       137  OSM       H7S           -23.0841358099        1.1167002521      -12.1336932679  MEMB      137             0.0000000000
     15946       137  OSM       H7T           -24.5587811723        2.1490894944      -12.2176693617  MEMB      137             0.0000000000
     15947       137  OSM       C8S           -23.1387698772        2.7736773585      -10.6623807322  MEMB      137             0.0000000000
     15948       137  OSM       H8S           -23.5119992073        3.8087632904      -10.5086994692  MEMB      137             0.0000000000
     15949       137  OSM       H8T           -22.0320318224        2.7685071535      -10.5652982999  MEMB      137             0.0000000000
     15950       137  OSM       C9S           -23.6531865563        2.0547899999       -9.4121832072  MEMB      137             0.0000000000
     15951       137  OSM       H9S           -24.7578636924        2.0046268607       -9.3049805784  MEMB      137             0.0000000000
     15952       137  OSM       H9T           -23.3066829159        2.7216828071       -8.5939468274  MEMB      137             0.0000000000
     15953       137  OSM       C10S          -23.3027515532        0.5916226925       -9.3811805321  MEMB      137             0.0000000000
     15954       137  OSM       H10S          -22.2165202048        0.4261515103       -9.5456241133  MEMB      137             0.0000000000
     15955       137  OSM       H10T          -23.8912348249        0.0699598039      -10.1659584517  MEMB      137             0.0000000000
     15956       137  OSM       C11S          -23.6382024524       -0.1692386510       -8.0689206274  MEMB      137             0.0000000000
     15957       137  OSM       H11S          -22.9704343472        0.2076294451       -7.2649450082  MEMB      137             0.0000000000
     15958       137  OSM       H11T          -23.5274575711       -1.2275015431       -8.3885083842  MEMB      137             0.0000000000
     15959       137  OSM       C12S          -25.0628661574        0.0540344899       -7.5375010915  MEMB      137             0.0000000000
     15960       137  OSM       H12S          -25.7845397714       -0.4425272329       -8.2208272278  MEMB      137             0.0000000000
     15961       137  OSM       H12T          -25.1787244192        1.1398451980       -7.3327746982  MEMB      137             0.0000000000
     15962       137  OSM       C13S          -25.3773107421       -0.8374056830       -6.2877543153  MEMB      137             0.0000000000
     15963       137  OSM       H13S          -25.1038810437       -1.8849726974       -6.5370744273  MEMB      137             0.0000000000
     15964       137  OSM       H13T          -26.4632338806       -0.7379056422       -6.0751710456  MEMB      137             0.0000000000
     15965       137  OSM       C14S          -24.6362033647       -0.3475871524       -5.0385215923  MEMB      137             0.0000000000
     15966       137  OSM       H14S          -23.5373092404       -0.4957276432       -5.1078550643  MEMB      137             0.0000000000
     15967       137  OSM       H14T          -25.0988949159       -0.9147800088       -4.2027405046  MEMB      137             0.0000000000
     15968       137  OSM       C15S          -24.9933547203        1.0666075681       -4.5812650647  MEMB      137             0.0000000000
     15969       137  OSM       H15S          -26.0964991462        1.1785669683       -4.6509678308  MEMB      137             0.0000000000
     15970       137  OSM       H15T          -24.5757884685        1.8659723284       -5.2300914718  MEMB      137             0.0000000000
     15971       137  OSM       C16S          -24.5479202444        1.2905445301       -3.1333385405  MEMB      137             0.0000000000
     15972       137  OSM       H16S          -23.4414994165        1.2816206463       -3.2337067913  MEMB      137             0.0000000000
     15973       137  OSM       H16T          -24.8649806096        0.4849249015       -2.4370834397  MEMB      137             0.0000000000
     15974       137  OSM       C17S          -25.2416951719        2.5172708582       -2.4813071768  MEMB      137             0.0000000000
     15975       137  OSM       H17S          -26.3202834179        2.2511013297       -2.4702479807  MEMB      137             0.0000000000
     15976       137  OSM       H17T          -25.1767057600        3.4497467669       -3.0817952709  MEMB      137             0.0000000000
     15977       137  OSM       C18S          -24.8139802490        2.6622355670       -0.9998888915  MEMB      137             0.0000000000
     15978       137  OSM       H18S          -25.0990064638        1.6795940660       -0.5668794241  MEMB      137             0.0000000000
     15979       137  OSM       H18T          -25.3343670491        3.5149758078       -0.5137272425  MEMB      137             0.0000000000
     15980       137  OSM       H18U          -23.7133493993        2.7245094900       -0.8618508122  MEMB      137             0.0000000000
     15981       137  OSM       C1F           -26.5180909612        0.0744454749      -15.8480423214  MEMB      137             0.0000000000
     15982       137  OSM       OF            -25.9604258542       -0.8958085795      -15.4138031464  MEMB      137             0.0000000000
     15983       137  OSM       C2F           -27.9730656800        0.2925357338      -15.6411014816  MEMB      137             0.0000000000
     15984       137  OSM       H2F           -28.4657791508       -0.5833266940      -15.1673724064  MEMB      137             0.0000000000
     15985       137  OSM       H2G           -28.4519502347        0.4941512087      -16.6231107548  MEMB      137             0.0000000000
     15986       137  OSM       C3F           -28.3221917903        1.5285156591      -14.8517620553  MEMB      137             0.0000000000
     15987       137  OSM       H3F           -28.2400068665        2.4204148380      -15.5090918459  MEMB      137             0.0000000000
     15988       137  OSM       H3G           -27.5747610930        1.7385326784      -14.0570539257  MEMB      137             0.0000000000
     15989       137  OSM       C4F           -29.6757786009        1.5044444142      -14.0517831868  MEMB      137             0.0000000000
     15990       137  OSM       H4F           -29.8998525269        0.4653580395      -13.7286555384  MEMB      137             0.0000000000
     15991       137  OSM       H4G           -30.4142606862        1.7751890351      -14.8364250098  MEMB      137             0.0000000000
     15992       137  OSM       C5F           -29.9369160521        2.4443673936      -12.8416553745  MEMB      137             0.0000000000
     15993       137  OSM       H5F           -30.9264594532        2.3234341574      -12.3512465193  MEMB      137             0.0000000000
     15994       137  OSM       H5G           -29.9753426098        3.4308032379      -13.3513496865  MEMB      137             0.0000000000
     15995       137  OSM       C6F           -28.8832695686        2.5471502767      -11.6889898639  MEMB      137             0.0000000000
     15996       137  OSM       H6F           -29.2379179324        3.2799759051      -10.9330062260  MEMB      137             0.0000000000
     15997       137  OSM       H6G           -27.9373202075        2.9767639697      -12.0826052204  MEMB      137             0.0000000000
     15998       137  OSM       C7F           -28.5032711385        1.1716755463      -11.0433396485  MEMB      137             0.0000000000
     15999       137  OSM       H7F           -28.1823053630        0.4181614125      -11.7940181326  MEMB      137             0.0000000000
     16000       137  OSM       H7G           -29.5046436570        0.8341905212      -10.7002963918  MEMB      137             0.0000000000
     16001       137  OSM       C8F           -27.4742584873        1.1186193647       -9.9499675073  MEMB      137             0.0000000000
     16002       137  OSM       H8F           -26.4670174222        1.3692990590      -10.3461314018  MEMB      137             0.0000000000
     16003       137  OSM       H8G           -27.3382404092        0.0759329007       -9.5913235475  MEMB      137             0.0000000000
     16004       137  OSM       C9F           -27.6033197242        2.1661421788       -8.8678844669  MEMB      137             0.0000000000
     16005       137  OSM       H9F           -26.8781481945        2.9818634829       -9.0047236977  MEMB      137             0.0000000000
     16006       137  OSM       C10F          -28.5426655150        2.2474351383       -7.9442381370  MEMB      137             0.0000000000
     16007       137  OSM       H10F          -28.4190480819        2.9468318428       -7.1042599048  MEMB      137             0.0000000000
     16008       137  OSM       C11F          -29.7087145008        1.3339755419       -7.7251512352  MEMB      137             0.0000000000
     16009       137  OSM       H11F          -29.6815722064        0.4192826517       -8.3551679327  MEMB      137             0.0000000000
     16010       137  OSM       H11G          -30.7352103012        1.7120411473       -7.9192995312  MEMB      137             0.0000000000
     16011       137  OSM       C12F          -29.5709625126        0.7380472299       -6.2616660598  MEMB      137             0.0000000000
     16012       137  OSM       H12F          -28.6194823310        0.2010929517       -6.0599573976  MEMB      137             0.0000000000
     16013       137  OSM       H12G          -30.4862555918        0.1160929548       -6.1630119098  MEMB      137             0.0000000000
     16014       137  OSM       C13F          -29.7718713693        1.6813696702       -5.0958743332  MEMB      137             0.0000000000
     16015       137  OSM       H13F          -30.5425206685        2.4354153643       -5.3638959110  MEMB      137             0.0000000000
     16016       137  OSM       H13G          -28.7764612768        2.1588847852       -4.9715389966  MEMB      137             0.0000000000
     16017       137  OSM       C14F          -30.0608218931        0.9524012846       -3.7909319356  MEMB      137             0.0000000000
     16018       137  OSM       H14F          -29.3591019169        0.1003699723       -3.6646271293  MEMB      137             0.0000000000
     16019       137  OSM       H14G          -31.0424338062        0.4323523490       -3.8084823829  MEMB      137             0.0000000000
     16020       137  OSM       C15F          -30.1136708205        1.8536187448       -2.5429006895  MEMB      137             0.0000000000
     16021       137  OSM       H15F          -31.1448709994        2.2504660144       -2.4268842914  MEMB      137             0.0000000000
     16022       137  OSM       H15G          -29.3813778382        2.6865571384       -2.6083348716  MEMB      137             0.0000000000
     16023       137  OSM       C16F          -29.6793767873        1.0849804770       -1.3035707869  MEMB      137             0.0000000000
     16024       137  OSM       H16F          -28.5861737867        0.8876082637       -1.3200800245  MEMB      137             0.0000000000
     16025       137  OSM       H16G          -30.2066060426        0.1254968953       -1.4926265701  MEMB      137             0.0000000000
     16026       137  OSM       C17F          -30.1115987874        1.8406270711       -0.0503993897  MEMB      137             0.0000000000
     16027       137  OSM       H17F          -29.9307034473        1.1867733725        0.8294140548  MEMB      137             0.0000000000
     16028       137  OSM       H17G          -31.2115790530        1.9209279098       -0.1842508573  MEMB      137             0.0000000000
     16029       137  OSM       C18F          -29.3691798685        3.1917496323        0.0027053512  MEMB      137             0.0000000000
     16030       137  OSM       H18F          -29.7226166156        3.9507365416       -0.7275966803  MEMB      137             0.0000000000
     16031       137  OSM       H18G          -28.2844782379        3.1593165680       -0.2353922511  MEMB      137             0.0000000000
     16032       137  OSM       H18H          -29.4663692392        3.7738392748        0.9440059751  MEMB      137             0.0000000000
     16033       138  CHL1      C3              6.1403093086       27.1881505711      -17.2956250000  MEMB      138             0.0000000000
     16034       138  CHL1      H3              5.0812449969       27.0125098309      -17.0095350000  MEMB      138             0.0000000000
     16035       138  CHL1      O3              6.2598027222       27.2542803080      -18.7043750000  MEMB      138             0.0000000000
     16036       138  CHL1      H3'             6.1759864287       28.1631896081      -19.0018150000  MEMB      138             0.0000000000
     16037       138  CHL1      C4              6.7571852350       28.4190312950      -16.5540750000  MEMB      138             0.0000000000
     16038       138  CHL1      H4A             7.7395058873       28.5149378063      -17.0641450000  MEMB      138             0.0000000000
     16039       138  CHL1      H4B             6.2028087658       29.3009790288      -16.9402950000  MEMB      138             0.0000000000
     16040       138  CHL1      C5              6.9791162011       28.3445841405      -15.0405250000  MEMB      138             0.0000000000
     16041       138  CHL1      C6              6.5267230632       29.3162194022      -14.1362550000  MEMB      138             0.0000000000
     16042       138  CHL1      H6              5.9515632034       30.1662187296      -14.5321050000  MEMB      138             0.0000000000
     16043       138  CHL1      C7              6.6650343116       29.2870689124      -12.6746650000  MEMB      138             0.0000000000
     16044       138  CHL1      H7A             7.0442001039       30.2612346904      -12.2984350000  MEMB      138             0.0000000000
     16045       138  CHL1      H7B             5.6527051439       29.1916409444      -12.2269950000  MEMB      138             0.0000000000
     16046       138  CHL1      C8              7.6355177940       28.1248408275      -12.1994250000  MEMB      138             0.0000000000
     16047       138  CHL1      H8              8.7011414115       28.4218436892      -12.3022550000  MEMB      138             0.0000000000
     16048       138  CHL1      C14             7.3821113662       27.9166032668      -10.6905950000  MEMB      138             0.0000000000
     16049       138  CHL1      H14             6.3611925326       27.4827459116      -10.6288750000  MEMB      138             0.0000000000
     16050       138  CHL1      C15             7.5835059959       29.1168370494       -9.7572050000  MEMB      138             0.0000000000
     16051       138  CHL1      H15A            8.5442081134       29.6342641605       -9.9661150000  MEMB      138             0.0000000000
     16052       138  CHL1      H15B            6.7014119827       29.7917900060       -9.7314950000  MEMB      138             0.0000000000
     16053       138  CHL1      C16             7.8355999232       28.4490636325       -8.3920650000  MEMB      138             0.0000000000
     16054       138  CHL1      H16A            8.8530408701       28.6615111114       -7.9996150000  MEMB      138             0.0000000000
     16055       138  CHL1      H16B            7.1064031839       28.6632624737       -7.5816950000  MEMB      138             0.0000000000
     16056       138  CHL1      C17             7.7363411661       26.8627580204       -8.6916550000  MEMB      138             0.0000000000
     16057       138  CHL1      H17             6.6797588592       26.5326010142       -8.5970450000  MEMB      138             0.0000000000
     16058       138  CHL1      C13             8.2629532648       26.7166213442      -10.1699450000  MEMB      138             0.0000000000
     16059       138  CHL1      C18             9.7940431093       27.0121310047      -10.1414550000  MEMB      138             0.0000000000
     16060       138  CHL1      H18A           10.4560482262       26.1286284132      -10.0170050000  MEMB      138             0.0000000000
     16061       138  CHL1      H18B           10.0015546646       27.4543829308      -11.1392850000  MEMB      138             0.0000000000
     16062       138  CHL1      H18C           10.0828400562       27.7178510936       -9.3334550000  MEMB      138             0.0000000000
     16063       138  CHL1      C12             7.9917210147       25.4567183426      -10.9695050000  MEMB      138             0.0000000000
     16064       138  CHL1      H12A            8.4777687122       24.5306868310      -10.5946150000  MEMB      138             0.0000000000
     16065       138  CHL1      H12B            6.9022892153       25.3161544179      -10.8030550000  MEMB      138             0.0000000000
     16066       138  CHL1      C11             8.3081999965       25.6839546124      -12.4175450000  MEMB      138             0.0000000000
     16067       138  CHL1      H11A            9.4075528757       25.7724331325      -12.5514050000  MEMB      138             0.0000000000
     16068       138  CHL1      H11B            8.1818531900       24.7943755970      -13.0710050000  MEMB      138             0.0000000000
     16069       138  CHL1      C9              7.4488298252       26.8921879544      -13.0447450000  MEMB      138             0.0000000000
     16070       138  CHL1      H9              6.3864867551       26.5722265800      -12.9864650000  MEMB      138             0.0000000000
     16071       138  CHL1      C10             7.6730083989       27.1156351911      -14.5144850000  MEMB      138             0.0000000000
     16072       138  CHL1      C19             9.2780278095       27.1431346754      -14.9029150000  MEMB      138             0.0000000000
     16073       138  CHL1      H19A            9.8747101405       27.9252664254      -14.3866250000  MEMB      138             0.0000000000
     16074       138  CHL1      H19B            9.7147268140       26.1388197338      -14.7159050000  MEMB      138             0.0000000000
     16075       138  CHL1      H19C            9.3753113286       27.2677983775      -16.0026050000  MEMB      138             0.0000000000
     16076       138  CHL1      C1              7.0817567231       25.9303108925      -15.3081950000  MEMB      138             0.0000000000
     16077       138  CHL1      H1A             7.7119254856       25.0284259879      -15.1538950000  MEMB      138             0.0000000000
     16078       138  CHL1      H1B             6.1026612450       25.7046725256      -14.8340950000  MEMB      138             0.0000000000
     16079       138  CHL1      C2              6.9808351676       25.9987455454      -16.8613050000  MEMB      138             0.0000000000
     16080       138  CHL1      H2A             6.7112464091       25.0102949769      -17.2909750000  MEMB      138             0.0000000000
     16081       138  CHL1      H2B             8.0267922422       26.1465586638      -17.2054450000  MEMB      138             0.0000000000
     16082       138  CHL1      C20             8.3650039207       26.0135411558       -7.5559150000  MEMB      138             0.0000000000
     16083       138  CHL1      H20             9.3217055824       26.5057171806       -7.2788050000  MEMB      138             0.0000000000
     16084       138  CHL1      C21             8.7214807062       24.6077417677       -7.9755050000  MEMB      138             0.0000000000
     16085       138  CHL1      H21A            9.3382864562       24.4673361792       -8.8888350000  MEMB      138             0.0000000000
     16086       138  CHL1      H21B            7.8089089290       23.9877618842       -8.1064950000  MEMB      138             0.0000000000
     16087       138  CHL1      H21C            9.2447095741       24.1687314235       -7.0992450000  MEMB      138             0.0000000000
     16088       138  CHL1      C22             7.4892159231       25.9979091092       -6.2363750000  MEMB      138             0.0000000000
     16089       138  CHL1      H22A            6.7397363961       26.8103038609       -6.3487050000  MEMB      138             0.0000000000
     16090       138  CHL1      H22B            7.0034642900       25.0054130322       -6.1210050000  MEMB      138             0.0000000000
     16091       138  CHL1      C23             8.1858644394       26.2561484925       -4.9287650000  MEMB      138             0.0000000000
     16092       138  CHL1      H23A            7.4025810579       26.1660199427       -4.1460250000  MEMB      138             0.0000000000
     16093       138  CHL1      H23B            8.9913153265       25.5260084025       -4.6997050000  MEMB      138             0.0000000000
     16094       138  CHL1      C24             8.7660133447       27.6444331868       -4.7879450000  MEMB      138             0.0000000000
     16095       138  CHL1      H24A            9.6086530703       27.5916818066       -5.5100850000  MEMB      138             0.0000000000
     16096       138  CHL1      H24B            7.9794163147       28.3372167008       -5.1562350000  MEMB      138             0.0000000000
     16097       138  CHL1      C25             9.2825691805       28.0238445142       -3.3860050000  MEMB      138             0.0000000000
     16098       138  CHL1      H25             8.4672475069       27.9126779929       -2.6395450000  MEMB      138             0.0000000000
     16099       138  CHL1      C26            10.4987103763       27.2477513311       -2.9525350000  MEMB      138             0.0000000000
     16100       138  CHL1      H26A           11.3431788097       27.5889346301       -3.5887650000  MEMB      138             0.0000000000
     16101       138  CHL1      H26B           10.7254028847       27.4283548946       -1.8800150000  MEMB      138             0.0000000000
     16102       138  CHL1      H26C           10.2096422786       26.1810757568       -3.0664050000  MEMB      138             0.0000000000
     16103       138  CHL1      C27             9.6186246585       29.4855115550       -3.1183150000  MEMB      138             0.0000000000
     16104       138  CHL1      H27A           10.0677014137       29.4931006783       -2.1021550000  MEMB      138             0.0000000000
     16105       138  CHL1      H27B           10.2653741708       29.8608207364       -3.9400150000  MEMB      138             0.0000000000
     16106       138  CHL1      H27C            8.6934430755       30.0820954320       -2.9685050000  MEMB      138             0.0000000000
     16107       139  CHL1      C3            -25.7541337974        8.6051819551      -17.3544100000  MEMB      139             0.0000000000
     16108       139  CHL1      H3            -24.8259489214        7.9972738731      -17.4113000000  MEMB      139             0.0000000000
     16109       139  CHL1      O3            -26.0681910026        9.1350858249      -18.6455900000  MEMB      139             0.0000000000
     16110       139  CHL1      H3'           -26.2738893053        8.3823463776      -19.2047600000  MEMB      139             0.0000000000
     16111       139  CHL1      C4            -26.8800818847        7.6983588848      -16.6939900000  MEMB      139             0.0000000000
     16112       139  CHL1      H4A           -27.8009419270        8.3082957131      -16.8136000000  MEMB      139             0.0000000000
     16113       139  CHL1      H4B           -26.8499189635        6.8124502266      -17.3637600000  MEMB      139             0.0000000000
     16114       139  CHL1      C5            -26.5397218212        7.3556582859      -15.2410600000  MEMB      139             0.0000000000
     16115       139  CHL1      C6            -26.5779689546        6.0719452589      -14.7073700000  MEMB      139             0.0000000000
     16116       139  CHL1      H6            -26.6750321900        5.1895196573      -15.3569200000  MEMB      139             0.0000000000
     16117       139  CHL1      C7            -26.6253528345        5.7634666825      -13.2348200000  MEMB      139             0.0000000000
     16118       139  CHL1      H7A           -27.4415068388        5.0562197597      -12.9740600000  MEMB      139             0.0000000000
     16119       139  CHL1      H7B           -25.6635427391        5.2915114126      -12.9407200000  MEMB      139             0.0000000000
     16120       139  CHL1      C8            -26.7994253068        7.0471352980      -12.2738300000  MEMB      139             0.0000000000
     16121       139  CHL1      H8            -27.8675001557        7.3290936914      -12.3922800000  MEMB      139             0.0000000000
     16122       139  CHL1      C14           -26.4284750806        6.7260513234      -10.8529400000  MEMB      139             0.0000000000
     16123       139  CHL1      H14           -25.3722521955        6.3822102107      -10.8309200000  MEMB      139             0.0000000000
     16124       139  CHL1      C15           -27.1794020562        5.5874184002      -10.1465300000  MEMB      139             0.0000000000
     16125       139  CHL1      H15A          -28.2855942423        5.5899086048      -10.2497700000  MEMB      139             0.0000000000
     16126       139  CHL1      H15B          -26.9734900495        4.5228619591      -10.3887000000  MEMB      139             0.0000000000
     16127       139  CHL1      C16           -26.8073893130        5.8339307088       -8.6504700000  MEMB      139             0.0000000000
     16128       139  CHL1      H16A          -27.7559881945        5.9092155529       -8.0770600000  MEMB      139             0.0000000000
     16129       139  CHL1      H16B          -26.2038588403        5.0072949839       -8.2183200000  MEMB      139             0.0000000000
     16130       139  CHL1      C17           -26.1119475342        7.1988475430       -8.5737200000  MEMB      139             0.0000000000
     16131       139  CHL1      H17           -25.0074019474        7.0831978774       -8.6041200000  MEMB      139             0.0000000000
     16132       139  CHL1      C13           -26.4943220323        7.9225662906       -9.8599200000  MEMB      139             0.0000000000
     16133       139  CHL1      C18           -27.8728603936        8.5255404788       -9.7338400000  MEMB      139             0.0000000000
     16134       139  CHL1      H18A          -28.2737979145        8.8476260308      -10.7186400000  MEMB      139             0.0000000000
     16135       139  CHL1      H18B          -28.5381453394        7.7983575182       -9.2210700000  MEMB      139             0.0000000000
     16136       139  CHL1      H18C          -27.7818614626        9.4327118663       -9.0989500000  MEMB      139             0.0000000000
     16137       139  CHL1      C12           -25.5384005197        9.0191706011      -10.3959800000  MEMB      139             0.0000000000
     16138       139  CHL1      H12A          -25.3686109239        9.8815661004       -9.7164500000  MEMB      139             0.0000000000
     16139       139  CHL1      H12B          -24.5459682943        8.5373651051      -10.5273900000  MEMB      139             0.0000000000
     16140       139  CHL1      C11           -25.9154187728        9.4592165138      -11.8895500000  MEMB      139             0.0000000000
     16141       139  CHL1      H11A          -26.8324496126       10.0859629497      -11.8657200000  MEMB      139             0.0000000000
     16142       139  CHL1      H11B          -25.0189242583       10.1078309806      -11.9891600000  MEMB      139             0.0000000000
     16143       139  CHL1      C9            -26.0182458673        8.2529131550      -12.8898800000  MEMB      139             0.0000000000
     16144       139  CHL1      H9            -24.9786017186        7.8612706908      -12.8815800000  MEMB      139             0.0000000000
     16145       139  CHL1      C10           -26.3639574443        8.6348092154      -14.3157500000  MEMB      139             0.0000000000
     16146       139  CHL1      C19           -27.6350667177        9.4708951073      -14.1797900000  MEMB      139             0.0000000000
     16147       139  CHL1      H19A          -27.9183627895        9.7563373632      -15.2154500000  MEMB      139             0.0000000000
     16148       139  CHL1      H19B          -28.4486501219        8.8629467933      -13.7294600000  MEMB      139             0.0000000000
     16149       139  CHL1      H19C          -27.4865750763       10.4609755609      -13.6981200000  MEMB      139             0.0000000000
     16150       139  CHL1      C1            -25.1303930054        9.3470916055      -14.9688100000  MEMB      139             0.0000000000
     16151       139  CHL1      H1A           -25.0117139376       10.2022872973      -14.2696100000  MEMB      139             0.0000000000
     16152       139  CHL1      H1B           -24.1868210056        8.7918084275      -14.7799600000  MEMB      139             0.0000000000
     16153       139  CHL1      C2            -25.3328166441        9.7657275402      -16.4867800000  MEMB      139             0.0000000000
     16154       139  CHL1      H2A           -24.3729271217       10.1194054246      -16.9202000000  MEMB      139             0.0000000000
     16155       139  CHL1      H2B           -26.0943645329       10.5692240446      -16.3931900000  MEMB      139             0.0000000000
     16156       139  CHL1      C20           -26.4776645409        7.7787540457       -7.1447300000  MEMB      139             0.0000000000
     16157       139  CHL1      H20           -27.5613797022        8.0027554065       -7.0462100000  MEMB      139             0.0000000000
     16158       139  CHL1      C21           -25.7091726040        9.0804000010       -6.7748900000  MEMB      139             0.0000000000
     16159       139  CHL1      H21A          -26.2459803622        9.5746750957       -5.9371200000  MEMB      139             0.0000000000
     16160       139  CHL1      H21B          -25.7343663812        9.7836061401       -7.6346500000  MEMB      139             0.0000000000
     16161       139  CHL1      H21C          -24.6608770065        8.8536087465       -6.4851400000  MEMB      139             0.0000000000
     16162       139  CHL1      C22           -26.2324822886        6.6815472338       -5.9900400000  MEMB      139             0.0000000000
     16163       139  CHL1      H22A          -27.0149613610        5.8965288923       -6.0662500000  MEMB      139             0.0000000000
     16164       139  CHL1      H22B          -25.3006671115        6.2102366914       -6.3694100000  MEMB      139             0.0000000000
     16165       139  CHL1      C23           -26.1733169871        7.2008432267       -4.5486200000  MEMB      139             0.0000000000
     16166       139  CHL1      H23A          -25.3298756583        7.8915338088       -4.3344500000  MEMB      139             0.0000000000
     16167       139  CHL1      H23B          -27.0761469847        7.8466316657       -4.5019400000  MEMB      139             0.0000000000
     16168       139  CHL1      C24           -26.5088419626        6.2081086544       -3.4051600000  MEMB      139             0.0000000000
     16169       139  CHL1      H24A          -26.5604379683        6.8160542522       -2.4766800000  MEMB      139             0.0000000000
     16170       139  CHL1      H24B          -27.4286899432        5.6238356271       -3.6215400000  MEMB      139             0.0000000000
     16171       139  CHL1      C25           -25.3392708878        5.2525918678       -3.2065100000  MEMB      139             0.0000000000
     16172       139  CHL1      H25           -25.2305613049        4.7083396693       -4.1689500000  MEMB      139             0.0000000000
     16173       139  CHL1      C26           -23.9581066794        5.8312072888       -2.8293000000  MEMB      139             0.0000000000
     16174       139  CHL1      H26A          -23.1962344207        5.0283864945       -2.7326100000  MEMB      139             0.0000000000
     16175       139  CHL1      H26B          -23.6242415198        6.3972430475       -3.7251100000  MEMB      139             0.0000000000
     16176       139  CHL1      H26C          -23.9890830884        6.4432456524       -1.9026100000  MEMB      139             0.0000000000
     16177       139  CHL1      C27           -25.5528652064        4.2288679182       -2.1897900000  MEMB      139             0.0000000000
     16178       139  CHL1      H27A          -26.5290803562        3.7446622298       -2.4062700000  MEMB      139             0.0000000000
     16179       139  CHL1      H27B          -24.7674809969        3.4502924775       -2.0833400000  MEMB      139             0.0000000000
     16180       139  CHL1      H27C          -25.5882889719        4.7754207871       -1.2231700000  MEMB      139             0.0000000000
     16181       140  SAPS      N              25.4183198884        7.2301245786      -20.0692001531  MEMB      140             0.0000000000
     16182       140  SAPS      HN1            24.4995983693        6.8824435491      -19.7276318711  MEMB      140             0.0000000000
     16183       140  SAPS      HN2            25.6742744225        6.7977589535      -20.9797754502  MEMB      140             0.0000000000
     16184       140  SAPS      HN3            26.1094645711        7.0844141053      -19.3058604684  MEMB      140             0.0000000000
     16185       140  SAPS      C12            25.4430930026        8.6691934737      -20.4042346607  MEMB      140             0.0000000000
     16186       140  SAPS      H12A           26.3412777835        8.7130785382      -21.0023468583  MEMB      140             0.0000000000
     16187       140  SAPS      C13            24.2793430210        9.1696515243      -21.3679263835  MEMB      140             0.0000000000
     16188       140  SAPS      O13A           23.6289039533        8.2625145547      -21.9753606450  MEMB      140             0.0000000000
     16189       140  SAPS      O13B           24.2098465710       10.3540994673      -21.7720303994  MEMB      140             0.0000000000
     16190       140  SAPS      C11            25.8182161659        9.6461906391      -19.2576887559  MEMB      140             0.0000000000
     16191       140  SAPS      H11A           26.5793599137        9.2041213229      -18.5797832001  MEMB      140             0.0000000000
     16192       140  SAPS      H11B           24.8523558005       10.0012468788      -18.8389169226  MEMB      140             0.0000000000
     16193       140  SAPS      P              26.8000309942       12.0671918887      -18.9967119173  MEMB      140             0.0000000000
     16194       140  SAPS      O13            27.9819577182       11.6698700529      -18.1861834840  MEMB      140             0.0000000000
     16195       140  SAPS      O14            26.9045538073       13.1794398708      -20.0204635892  MEMB      140             0.0000000000
     16196       140  SAPS      O12            26.3985704374       10.7923122875      -19.8905605248  MEMB      140             0.0000000000
     16197       140  SAPS      O11            25.5711252486       12.2347221374      -18.0596394577  MEMB      140             0.0000000000
     16198       140  SAPS      C1             24.4769095678       12.9505419237      -18.5157568737  MEMB      140             0.0000000000
     16199       140  SAPS      HA             24.8767652992       13.9503284734      -18.7893681257  MEMB      140             0.0000000000
     16200       140  SAPS      HB             23.9802248286       12.5673000629      -19.4326816219  MEMB      140             0.0000000000
     16201       140  SAPS      C2             23.4076807020       13.0969319519      -17.4404556371  MEMB      140             0.0000000000
     16202       140  SAPS      HS             22.5107441891       13.6044266495      -17.8555157542  MEMB      140             0.0000000000
     16203       140  SAPS      O21            23.8678538218       13.6898047711      -16.3146431135  MEMB      140             0.0000000000
     16204       140  SAPS      C21            24.0550450678       14.9802263234      -16.2586408394  MEMB      140             0.0000000000
     16205       140  SAPS      O22            23.9510528174       15.7918983289      -17.1558334099  MEMB      140             0.0000000000
     16206       140  SAPS      C22            24.6314334616       15.2807198998      -14.8563732526  MEMB      140             0.0000000000
     16207       140  SAPS      H2R            24.7505975113       14.4632347626      -14.1135145761  MEMB      140             0.0000000000
     16208       140  SAPS      H2S            25.6479593899       15.6700207889      -15.0787263521  MEMB      140             0.0000000000
     16209       140  SAPS      C3             22.9569527474       11.6702530969      -17.0268518869  MEMB      140             0.0000000000
     16210       140  SAPS      HX             22.7234816552       11.0852159687      -17.9420262470  MEMB      140             0.0000000000
     16211       140  SAPS      HY             22.0280532262       11.6591560066      -16.4174724247  MEMB      140             0.0000000000
     16212       140  SAPS      O31            23.9936889293       11.0260473551      -16.3238287439  MEMB      140             0.0000000000
     16213       140  SAPS      C31            23.9948137875        9.6732587517      -16.2018124160  MEMB      140             0.0000000000
     16214       140  SAPS      O32            23.2908875290        8.9190254204      -16.8387943424  MEMB      140             0.0000000000
     16215       140  SAPS      C32            24.9442389663        9.3014948041      -15.1602127775  MEMB      140             0.0000000000
     16216       140  SAPS      H2X            25.8703593647        8.8969685606      -15.6217110233  MEMB      140             0.0000000000
     16217       140  SAPS      H2Y            24.4865263531        8.6056351913      -14.4249581227  MEMB      140             0.0000000000
     16218       140  SAPS      C23            23.8006120271       16.4264873416      -14.1270027234  MEMB      140             0.0000000000
     16219       140  SAPS      H3R            23.9576404758       17.3760813023      -14.6819208778  MEMB      140             0.0000000000
     16220       140  SAPS      H3S            24.1820002209       16.6176512893      -13.1011759085  MEMB      140             0.0000000000
     16221       140  SAPS      C24            22.3539518643       16.1452197485      -14.0153986898  MEMB      140             0.0000000000
     16222       140  SAPS      H4R            21.8060908866       15.9566054459      -14.9633406733  MEMB      140             0.0000000000
     16223       140  SAPS      H4S            21.8890025879       17.0660091797      -13.6027371009  MEMB      140             0.0000000000
     16224       140  SAPS      C25            22.0749937863       14.8933449653      -13.2014890435  MEMB      140             0.0000000000
     16225       140  SAPS      H5R            22.0114796489       13.8637251525      -13.5833905662  MEMB      140             0.0000000000
     16226       140  SAPS      C26            21.8462851954       14.9898330219      -11.8685589463  MEMB      140             0.0000000000
     16227       140  SAPS      H6R            21.7741364141       14.0314653179      -11.3334646995  MEMB      140             0.0000000000
     16228       140  SAPS      C27            21.7460466533       16.1943908844      -11.0212415798  MEMB      140             0.0000000000
     16229       140  SAPS      H7R            21.0377081904       16.9350991445      -11.4501113772  MEMB      140             0.0000000000
     16230       140  SAPS      H7S            22.7359766209       16.6908623548      -10.9324974949  MEMB      140             0.0000000000
     16231       140  SAPS      C28            21.3752620929       15.8939707919       -9.5922315635  MEMB      140             0.0000000000
     16232       140  SAPS      H8R            20.3646868787       16.1618190802       -9.2501872194  MEMB      140             0.0000000000
     16233       140  SAPS      C29            22.2080107457       15.4206687073       -8.5748002482  MEMB      140             0.0000000000
     16234       140  SAPS      H9R            21.6938988471       15.1905182029       -7.6299615974  MEMB      140             0.0000000000
     16235       140  SAPS      C210           23.6917573387       15.1201992507       -8.6654645062  MEMB      140             0.0000000000
     16236       140  SAPS      H10R           23.9074765576       14.6127087505       -9.6299544189  MEMB      140             0.0000000000
     16237       140  SAPS      H10S           23.8688884608       14.3984654811       -7.8396035318  MEMB      140             0.0000000000
     16238       140  SAPS      C211           24.6270418296       16.3642939885       -8.6531635902  MEMB      140             0.0000000000
     16239       140  SAPS      H11R           24.5799678604       16.8431864813       -9.6423272962  MEMB      140             0.0000000000
     16240       140  SAPS      C212           25.4882475118       16.8557018373       -7.6985078319  MEMB      140             0.0000000000
     16241       140  SAPS      H12R           26.1743890477       17.6783708993       -7.9483586832  MEMB      140             0.0000000000
     16242       140  SAPS      C213           25.6517310380       16.2752197699       -6.3730539864  MEMB      140             0.0000000000
     16243       140  SAPS      H13R           26.7422925921       16.1157593847       -6.2331651635  MEMB      140             0.0000000000
     16244       140  SAPS      H13S           25.3301258757       15.2123920873       -6.3371573531  MEMB      140             0.0000000000
     16245       140  SAPS      C214           24.9966359503       17.0587537908       -5.3249353112  MEMB      140             0.0000000000
     16246       140  SAPS      H14R           25.0785702076       18.1450001597       -5.4777625120  MEMB      140             0.0000000000
     16247       140  SAPS      C215           24.4994788063       16.6136896811       -4.0875179850  MEMB      140             0.0000000000
     16248       140  SAPS      H15R           24.1583002892       17.3735965751       -3.3690899752  MEMB      140             0.0000000000
     16249       140  SAPS      C216           24.6385843773       15.2065643894       -3.6334843810  MEMB      140             0.0000000000
     16250       140  SAPS      H16R           25.3270318785       15.1759705458       -2.7620352399  MEMB      140             0.0000000000
     16251       140  SAPS      H16S           25.1516939209       14.5531672610       -4.3711242918  MEMB      140             0.0000000000
     16252       140  SAPS      C217           23.2677494161       14.6515434070       -3.2460991189  MEMB      140             0.0000000000
     16253       140  SAPS      H17R           22.6925887252       14.4957274792       -4.1837724250  MEMB      140             0.0000000000
     16254       140  SAPS      H17S           22.6380158060       15.3655135355       -2.6733826580  MEMB      140             0.0000000000
     16255       140  SAPS      C218           23.2430424840       13.2380198975       -2.5975294727  MEMB      140             0.0000000000
     16256       140  SAPS      H18R           23.8766894710       13.2674561619       -1.6854201099  MEMB      140             0.0000000000
     16257       140  SAPS      H18S           23.6751911451       12.4431109513       -3.2422702343  MEMB      140             0.0000000000
     16258       140  SAPS      C219           21.8523582319       12.7746561883       -2.2977964309  MEMB      140             0.0000000000
     16259       140  SAPS      H19R           21.2567772294       12.8871110662       -3.2289035291  MEMB      140             0.0000000000
     16260       140  SAPS      H19S           21.2922564757       13.4078194234       -1.5768863076  MEMB      140             0.0000000000
     16261       140  SAPS      C220           21.8510312352       11.3209197376       -1.6807686784  MEMB      140             0.0000000000
     16262       140  SAPS      H20R           22.1224605852       10.5127958688       -2.3932175325  MEMB      140             0.0000000000
     16263       140  SAPS      H20S           20.8162565643       11.0793418290       -1.3564196898  MEMB      140             0.0000000000
     16264       140  SAPS      H20T           22.3763366277       11.3371050390       -0.7019368637  MEMB      140             0.0000000000
     16265       140  SAPS      C33            25.4959176753       10.4708222155      -14.2524154260  MEMB      140             0.0000000000
     16266       140  SAPS      H3X            24.6818405005       10.8829390532      -13.6185705961  MEMB      140             0.0000000000
     16267       140  SAPS      H3Y            25.9980863746       11.2512067176      -14.8632736876  MEMB      140             0.0000000000
     16268       140  SAPS      C34            26.6150362273        9.9935246693      -13.2362014174  MEMB      140             0.0000000000
     16269       140  SAPS      H4X            27.3810236054        9.4354243535      -13.8159497568  MEMB      140             0.0000000000
     16270       140  SAPS      H4Y            26.1217807718        9.2004218410      -12.6345307063  MEMB      140             0.0000000000
     16271       140  SAPS      C35            27.1076681645       11.2385340250      -12.4046927845  MEMB      140             0.0000000000
     16272       140  SAPS      H5X            26.3071767741       11.5691595255      -11.7088326764  MEMB      140             0.0000000000
     16273       140  SAPS      H5Y            27.3487240782       12.0317868037      -13.1442622354  MEMB      140             0.0000000000
     16274       140  SAPS      C36            28.3327961868       10.9976456806      -11.5638791640  MEMB      140             0.0000000000
     16275       140  SAPS      H6X            29.3173863252       10.8259744759      -12.0490929037  MEMB      140             0.0000000000
     16276       140  SAPS      H6Y            28.0349197021       10.1884159271      -10.8633522324  MEMB      140             0.0000000000
     16277       140  SAPS      C37            28.5007375114       12.0467261646      -10.4758730549  MEMB      140             0.0000000000
     16278       140  SAPS      H7X            28.5316677208       13.0237350347      -11.0039051085  MEMB      140             0.0000000000
     16279       140  SAPS      H7Y            29.5108216015       11.9881929911      -10.0169339693  MEMB      140             0.0000000000
     16280       140  SAPS      C38            27.6291658731       11.9928489780       -9.2202997579  MEMB      140             0.0000000000
     16281       140  SAPS      H8X            26.9747913406       11.0963545983       -9.1711780143  MEMB      140             0.0000000000
     16282       140  SAPS      H8Y            26.8656070805       12.7969176360       -9.2893851496  MEMB      140             0.0000000000
     16283       140  SAPS      C39            28.4689109907       12.1027585090       -7.9084762886  MEMB      140             0.0000000000
     16284       140  SAPS      H9X            29.3065265873       12.8307302295       -7.9611874321  MEMB      140             0.0000000000
     16285       140  SAPS      H9Y            28.9542218808       11.1319096116       -7.6713117632  MEMB      140             0.0000000000
     16286       140  SAPS      C310           27.5508389149       12.4126724833       -6.7347600301  MEMB      140             0.0000000000
     16287       140  SAPS      H10X           26.6391003121       11.7800129872       -6.6818834062  MEMB      140             0.0000000000
     16288       140  SAPS      H10Y           27.0989925813       13.4119017069       -6.9127972000  MEMB      140             0.0000000000
     16289       140  SAPS      C311           28.2691927695       12.2759958099       -5.3347492421  MEMB      140             0.0000000000
     16290       140  SAPS      H11X           29.0458045342       13.0422189357       -5.1247568275  MEMB      140             0.0000000000
     16291       140  SAPS      H11Y           28.7959223954       11.2979058786       -5.3494964469  MEMB      140             0.0000000000
     16292       140  SAPS      C312           27.4550343658       12.2724632498       -4.0134866074  MEMB      140             0.0000000000
     16293       140  SAPS      H12X           26.6844519954       11.4726071989       -4.0409476023  MEMB      140             0.0000000000
     16294       140  SAPS      H12Y           26.9772299550       13.2737181291       -3.9542225462  MEMB      140             0.0000000000
     16295       140  SAPS      C313           28.3091231591       12.0398685630       -2.6811586995  MEMB      140             0.0000000000
     16296       140  SAPS      H13X           28.8813051401       12.9757247652       -2.5047999383  MEMB      140             0.0000000000
     16297       140  SAPS      H13Y           28.9222443293       11.1186081148       -2.7795599595  MEMB      140             0.0000000000
     16298       140  SAPS      C314           27.3494659082       11.9469313138       -1.5067510959  MEMB      140             0.0000000000
     16299       140  SAPS      H14X           26.6431415500       12.7903265328       -1.6620297824  MEMB      140             0.0000000000
     16300       140  SAPS      H14Y           27.8494075183       12.1166047316       -0.5292095586  MEMB      140             0.0000000000
     16301       140  SAPS      C315           26.6615703332       10.5847040947       -1.4322281859  MEMB      140             0.0000000000
     16302       140  SAPS      H15X           27.3472021139        9.8700371801       -0.9287593319  MEMB      140             0.0000000000
     16303       140  SAPS      H15Y           26.5163010411       10.0609249341       -2.4011829677  MEMB      140             0.0000000000
     16304       140  SAPS      C316           25.2428822932       10.4553196996       -0.6710790646  MEMB      140             0.0000000000
     16305       140  SAPS      H16X           24.8125475598        9.4405581166       -0.5318243521  MEMB      140             0.0000000000
     16306       140  SAPS      H16Y           24.4829741333       10.8828663245       -1.3596027967  MEMB      140             0.0000000000
     16307       140  SAPS      C317           25.1005251700       11.3154848868        0.5689202388  MEMB      140             0.0000000000
     16308       140  SAPS      H17X           24.1447307816       11.2039126294        1.1241952919  MEMB      140             0.0000000000
     16309       140  SAPS      H17Y           25.1070195240       12.4108794955        0.3834756859  MEMB      140             0.0000000000
     16310       140  SAPS      C318           26.1445958639       10.9748594621        1.6646219320  MEMB      140             0.0000000000
     16311       140  SAPS      H18X           27.1660053367       10.7802324505        1.2732579474  MEMB      140             0.0000000000
     16312       140  SAPS      H18Y           25.8360517711       10.0308124506        2.1625135837  MEMB      140             0.0000000000
     16313       140  SAPS      H18Z           26.1458522937       11.7814033323        2.4286926011  MEMB      140             0.0000000000
     16314       141  OSM       N              21.1369040948      -20.6041554616      -20.1963202864  MEMB      141             0.0000000000
     16315       141  OSM       C15            20.5484449803      -19.5421677118      -21.1186071142  MEMB      141             0.0000000000
     16316       141  OSM       H15A           21.3138171965      -18.7841889505      -21.1965397080  MEMB      141             0.0000000000
     16317       141  OSM       H15B           19.7149040539      -19.0408031051      -20.6493064834  MEMB      141             0.0000000000
     16318       141  OSM       H15C           20.2048856676      -19.9987618158      -22.0350616072  MEMB      141             0.0000000000
     16319       141  OSM       C14            22.3832465322      -21.2151432118      -20.8526125197  MEMB      141             0.0000000000
     16320       141  OSM       H14A           22.1930057830      -21.8886119704      -21.6751989643  MEMB      141             0.0000000000
     16321       141  OSM       H14B           22.8697930862      -21.8631419138      -20.1386306655  MEMB      141             0.0000000000
     16322       141  OSM       H14C           23.1046690982      -20.5543137594      -21.3100552806  MEMB      141             0.0000000000
     16323       141  OSM       C13            21.7203963741      -20.0302592560      -18.8988295070  MEMB      141             0.0000000000
     16324       141  OSM       H13A           20.9475387121      -19.5947145330      -18.2828817767  MEMB      141             0.0000000000
     16325       141  OSM       H13B           22.3807858375      -19.2653744480      -19.2799291793  MEMB      141             0.0000000000
     16326       141  OSM       H13C           22.3015791703      -20.7948161495      -18.4047853555  MEMB      141             0.0000000000
     16327       141  OSM       C12            20.1976663683      -21.7823771454      -19.8647245461  MEMB      141             0.0000000000
     16328       141  OSM       H12A           19.3825938120      -21.4566707649      -19.2354614530  MEMB      141             0.0000000000
     16329       141  OSM       H12B           20.7592974832      -22.4114696586      -19.1900299012  MEMB      141             0.0000000000
     16330       141  OSM       C11            19.5808869175      -22.6145275392      -21.0749987845  MEMB      141             0.0000000000
     16331       141  OSM       H11A           18.9619986581      -23.4586287446      -20.7024517981  MEMB      141             0.0000000000
     16332       141  OSM       H11B           20.4617906455      -23.0594516551      -21.5852653185  MEMB      141             0.0000000000
     16333       141  OSM       P              17.3419445212      -21.5891258631      -21.8871824991  MEMB      141             0.0000000000
     16334       141  OSM       O13            16.8551866537      -20.5412766151      -22.8030441340  MEMB      141             0.0000000000
     16335       141  OSM       O14            16.6713505937      -22.8687150088      -21.7950639575  MEMB      141             0.0000000000
     16336       141  OSM       O11            17.4249745187      -21.0157428606      -20.3883749038  MEMB      141             0.0000000000
     16337       141  OSM       O12            18.9682447266      -21.8544734622      -22.1202417444  MEMB      141             0.0000000000
     16338       141  OSM       C1S            16.3699128057      -21.2113032932      -19.5298323536  MEMB      141             0.0000000000
     16339       141  OSM       H1S            15.7076730739      -22.0628731476      -19.7955165570  MEMB      141             0.0000000000
     16340       141  OSM       H1T            15.6667773290      -20.3603642046      -19.6556278917  MEMB      141             0.0000000000
     16341       141  OSM       NF             15.6823700818      -21.6930118330      -17.2404125975  MEMB      141             0.0000000000
     16342       141  OSM       HNF            15.3862440533      -20.9780731952      -16.6117779933  MEMB      141             0.0000000000
     16343       141  OSM       C2S            16.8077777299      -21.2348204243      -17.9954265824  MEMB      141             0.0000000000
     16344       141  OSM       H2S            17.6127786587      -21.9943696252      -17.8985792162  MEMB      141             0.0000000000
     16345       141  OSM       C3S            17.2806079596      -19.9444848287      -17.5214911951  MEMB      141             0.0000000000
     16346       141  OSM       H3S            16.4817763773      -19.1798035995      -17.4144779585  MEMB      141             0.0000000000
     16347       141  OSM       O3             18.2538931429      -19.2951495845      -18.3634560231  MEMB      141             0.0000000000
     16348       141  OSM       HO3            18.3020182996      -19.8572211236      -19.1402182279  MEMB      141             0.0000000000
     16349       141  OSM       C4S            17.8337672312      -20.2058530413      -16.1029299588  MEMB      141             0.0000000000
     16350       141  OSM       H4S            18.2927507379      -21.1902155600      -15.9286754330  MEMB      141             0.0000000000
     16351       141  OSM       C5S            17.6152189040      -19.3254109960      -15.0748359187  MEMB      141             0.0000000000
     16352       141  OSM       H5S            17.0695642677      -18.3858357062      -15.2464731057  MEMB      141             0.0000000000
     16353       141  OSM       C6S            18.1767346603      -19.4744423996      -13.7059859198  MEMB      141             0.0000000000
     16354       141  OSM       H6S            17.3961423302      -19.2147166953      -12.9593007730  MEMB      141             0.0000000000
     16355       141  OSM       H6T            19.0656267796      -18.8438958907      -13.4901091159  MEMB      141             0.0000000000
     16356       141  OSM       C7S            18.5287238484      -20.9219714581      -13.2748283037  MEMB      141             0.0000000000
     16357       141  OSM       H7S            19.4544057847      -21.2156074753      -13.8144684244  MEMB      141             0.0000000000
     16358       141  OSM       H7T            17.6829710347      -21.5943507404      -13.5335351273  MEMB      141             0.0000000000
     16359       141  OSM       C8S            18.7770578734      -20.9174947066      -11.7019349558  MEMB      141             0.0000000000
     16360       141  OSM       H8S            17.8876117411      -20.4642737822      -11.2142894715  MEMB      141             0.0000000000
     16361       141  OSM       H8T            19.6416370130      -20.2323023577      -11.5702704775  MEMB      141             0.0000000000
     16362       141  OSM       C9S            19.0694574900      -22.3574966670      -11.3160478232  MEMB      141             0.0000000000
     16363       141  OSM       H9S            20.0871185730      -22.5849744278      -11.6993764649  MEMB      141             0.0000000000
     16364       141  OSM       H9T            18.2385452905      -22.9745011684      -11.7200421197  MEMB      141             0.0000000000
     16365       141  OSM       C10S           19.0541360534      -22.5267145429       -9.7929439006  MEMB      141             0.0000000000
     16366       141  OSM       H10S           18.1262155877      -22.1160833814       -9.3405427639  MEMB      141             0.0000000000
     16367       141  OSM       H10T           19.8621205072      -21.8896510762       -9.3738589826  MEMB      141             0.0000000000
     16368       141  OSM       C11S           19.1098909096      -24.0098196067       -9.4213307318  MEMB      141             0.0000000000
     16369       141  OSM       H11S           19.6237692224      -24.7136863199      -10.1104041630  MEMB      141             0.0000000000
     16370       141  OSM       H11T           18.0574738513      -24.3657576651       -9.4282119999  MEMB      141             0.0000000000
     16371       141  OSM       C12S           19.4960114730      -24.2715283092       -7.9194097810  MEMB      141             0.0000000000
     16372       141  OSM       H12S           20.5439894261      -23.9070152287       -7.8628999804  MEMB      141             0.0000000000
     16373       141  OSM       H12T           19.3608463229      -25.3697303865       -7.8193912938  MEMB      141             0.0000000000
     16374       141  OSM       C13S           18.6653956573      -23.4174973752       -6.9372478867  MEMB      141             0.0000000000
     16375       141  OSM       H13S           17.6220343201      -23.2806481942       -7.2936055867  MEMB      141             0.0000000000
     16376       141  OSM       H13T           18.9469286477      -22.3449958694       -7.0065358042  MEMB      141             0.0000000000
     16377       141  OSM       C14S           18.6207009810      -23.8922686720       -5.4745727451  MEMB      141             0.0000000000
     16378       141  OSM       H14S           18.0235420839      -24.8168898273       -5.3235832648  MEMB      141             0.0000000000
     16379       141  OSM       H14T           17.9893299839      -23.0810810604       -5.0530680880  MEMB      141             0.0000000000
     16380       141  OSM       C15S           19.9833130999      -23.8701448763       -4.6677669587  MEMB      141             0.0000000000
     16381       141  OSM       H15S           20.6092054444      -22.9557613327       -4.7482785394  MEMB      141             0.0000000000
     16382       141  OSM       H15T           20.6342171998      -24.6976427397       -5.0225788830  MEMB      141             0.0000000000
     16383       141  OSM       C16S           19.7547757156      -24.3352991093       -3.1489742691  MEMB      141             0.0000000000
     16384       141  OSM       H16S           20.7023995991      -24.5932761170       -2.6295734758  MEMB      141             0.0000000000
     16385       141  OSM       H16T           19.0928132525      -25.2221959719       -3.0512976228  MEMB      141             0.0000000000
     16386       141  OSM       C17S           18.9878173171      -23.2954467004       -2.2818006980  MEMB      141             0.0000000000
     16387       141  OSM       H17S           18.0935272827      -23.0343159464       -2.8870915003  MEMB      141             0.0000000000
     16388       141  OSM       H17T           19.6116430881      -22.3768401111       -2.3181920457  MEMB      141             0.0000000000
     16389       141  OSM       C18S           18.6823228165      -23.7765646553       -0.8904879059  MEMB      141             0.0000000000
     16390       141  OSM       H18S           18.1162609803      -24.7298764601       -0.9618431272  MEMB      141             0.0000000000
     16391       141  OSM       H18T           18.0795703790      -22.9588492323       -0.4406528543  MEMB      141             0.0000000000
     16392       141  OSM       H18U           19.5752350762      -24.0486683258       -0.2880033809  MEMB      141             0.0000000000
     16393       141  OSM       C1F            15.1811790569      -22.8871426847      -17.2955343158  MEMB      141             0.0000000000
     16394       141  OSM       OF             15.8135839619      -23.8787845785      -17.6705796434  MEMB      141             0.0000000000
     16395       141  OSM       C2F            13.7939117930      -22.9611191982      -16.7796237660  MEMB      141             0.0000000000
     16396       141  OSM       H2F            13.3549660275      -23.9301576898      -17.0999558810  MEMB      141             0.0000000000
     16397       141  OSM       H2G            13.2134989358      -22.0980521030      -17.1702097258  MEMB      141             0.0000000000
     16398       141  OSM       C3F            13.7629997595      -22.8423806370      -15.2258727139  MEMB      141             0.0000000000
     16399       141  OSM       H3F            14.5304400369      -23.4763078360      -14.7324226867  MEMB      141             0.0000000000
     16400       141  OSM       H3G            12.8772969074      -23.3420643882      -14.7784715877  MEMB      141             0.0000000000
     16401       141  OSM       C4F            13.7617575700      -21.4719116706      -14.7025842364  MEMB      141             0.0000000000
     16402       141  OSM       H4F            13.0594099941      -20.7345532149      -15.1468041400  MEMB      141             0.0000000000
     16403       141  OSM       H4G            14.8137410268      -21.1161829950      -14.7358875877  MEMB      141             0.0000000000
     16404       141  OSM       C5F            13.6095637160      -21.4504346126      -13.1619923668  MEMB      141             0.0000000000
     16405       141  OSM       H5F            14.1760132122      -22.3521545534      -12.8451999463  MEMB      141             0.0000000000
     16406       141  OSM       H5G            12.5332342511      -21.5121698752      -12.8936190037  MEMB      141             0.0000000000
     16407       141  OSM       C6F            14.1422893871      -20.2048604160      -12.5085149607  MEMB      141             0.0000000000
     16408       141  OSM       H6F            13.6789665139      -19.2725577120      -12.8964125940  MEMB      141             0.0000000000
     16409       141  OSM       H6G            15.2296251466      -20.1763647544      -12.7348116003  MEMB      141             0.0000000000
     16410       141  OSM       C7F            14.0393815596      -20.2134457486      -11.0072662388  MEMB      141             0.0000000000
     16411       141  OSM       H7F            12.9823750793      -20.0499087296      -10.7067443553  MEMB      141             0.0000000000
     16412       141  OSM       H7G            14.5282641809      -19.2873680470      -10.6361946066  MEMB      141             0.0000000000
     16413       141  OSM       C8F            14.6804106920      -21.3792305125      -10.2457109625  MEMB      141             0.0000000000
     16414       141  OSM       H8F            15.7753219546      -21.4237226863      -10.4287698043  MEMB      141             0.0000000000
     16415       141  OSM       H8G            14.1910377607      -22.3265083537      -10.5579610428  MEMB      141             0.0000000000
     16416       141  OSM       C9F            14.5309764735      -21.2044783267       -8.7353239467  MEMB      141             0.0000000000
     16417       141  OSM       H9F            13.7128236078      -21.8089089260       -8.3166489013  MEMB      141             0.0000000000
     16418       141  OSM       C10F           15.0823138658      -20.3177620694       -7.9182496245  MEMB      141             0.0000000000
     16419       141  OSM       H10F           15.0233806706      -20.4639320698       -6.8295991390  MEMB      141             0.0000000000
     16420       141  OSM       C11F           16.0677660328      -19.2784159832       -8.3147746636  MEMB      141             0.0000000000
     16421       141  OSM       H11F           15.5917280933      -18.3196542658       -8.6122384818  MEMB      141             0.0000000000
     16422       141  OSM       H11G           16.6007481762      -19.6521901138       -9.2150771560  MEMB      141             0.0000000000
     16423       141  OSM       C12F           17.2372507212      -19.0484882167       -7.2238370003  MEMB      141             0.0000000000
     16424       141  OSM       H12F           17.6506261570      -20.0546981978       -6.9980425710  MEMB      141             0.0000000000
     16425       141  OSM       H12G           16.8834265360      -18.4507175141       -6.3567739173  MEMB      141             0.0000000000
     16426       141  OSM       C13F           18.3608708938      -18.2174619719       -7.7779914433  MEMB      141             0.0000000000
     16427       141  OSM       H13F           17.8280698018      -17.2954435137       -8.0947348160  MEMB      141             0.0000000000
     16428       141  OSM       H13G           18.7257983390      -18.7185837012       -8.6999598541  MEMB      141             0.0000000000
     16429       141  OSM       C14F           19.4930975444      -17.8038885018       -6.7485672793  MEMB      141             0.0000000000
     16430       141  OSM       H14F           19.2345801093      -16.8142070229       -6.3149539969  MEMB      141             0.0000000000
     16431       141  OSM       H14G           20.4319003190      -17.5701524983       -7.2947702508  MEMB      141             0.0000000000
     16432       141  OSM       C15F           19.9028684624      -18.8509734111       -5.7197924247  MEMB      141             0.0000000000
     16433       141  OSM       H15F           20.2094622868      -19.7693159304       -6.2647408704  MEMB      141             0.0000000000
     16434       141  OSM       H15G           18.9792221155      -19.0752347401       -5.1445482732  MEMB      141             0.0000000000
     16435       141  OSM       C16F           20.9962044634      -18.5027248941       -4.6859643582  MEMB      141             0.0000000000
     16436       141  OSM       H16F           21.9380024328      -18.3213069136       -5.2467008294  MEMB      141             0.0000000000
     16437       141  OSM       H16G           21.1475586310      -19.4027621428       -4.0524468549  MEMB      141             0.0000000000
     16438       141  OSM       C17F           20.6173953477      -17.2962005057       -3.7171399127  MEMB      141             0.0000000000
     16439       141  OSM       H17F           20.6704916414      -16.3861785326       -4.3522458718  MEMB      141             0.0000000000
     16440       141  OSM       H17G           21.3663674848      -17.2367700004       -2.8987071288  MEMB      141             0.0000000000
     16441       141  OSM       C18F           19.2785297329      -17.3691370254       -2.8754364756  MEMB      141             0.0000000000
     16442       141  OSM       H18F           19.1487241061      -18.3865387579       -2.4483950545  MEMB      141             0.0000000000
     16443       141  OSM       H18G           18.4193584905      -17.1873994213       -3.5559643602  MEMB      141             0.0000000000
     16444       141  OSM       H18H           19.2252973413      -16.5368394123       -2.1414293035  MEMB      141             0.0000000000
     16445       142  SLPC      N              29.5592614697       -1.2602394598      -18.3127807041  MEMB      142             0.0000000000
     16446       142  SLPC      C13            28.7751625266       -0.0268331308      -18.7563918247  MEMB      142             0.0000000000
     16447       142  SLPC      H13A           28.2834293576       -0.2915653041      -19.6807919607  MEMB      142             0.0000000000
     16448       142  SLPC      H13B           28.0792836738        0.2547388819      -17.9799449789  MEMB      142             0.0000000000
     16449       142  SLPC      H13C           29.4352614219        0.8167186243      -18.8945572277  MEMB      142             0.0000000000
     16450       142  SLPC      C14            30.1894958952       -0.9491478016      -16.9667802541  MEMB      142             0.0000000000
     16451       142  SLPC      H14A           29.3888251771       -0.6618492373      -16.3013586604  MEMB      142             0.0000000000
     16452       142  SLPC      H14B           30.8677978679       -1.7702318536      -16.7875389959  MEMB      142             0.0000000000
     16453       142  SLPC      H14C           30.8026885367       -0.0674688714      -17.0809615800  MEMB      142             0.0000000000
     16454       142  SLPC      C15            30.7881083735       -1.4541826965      -19.2496450383  MEMB      142             0.0000000000
     16455       142  SLPC      H15A           31.3519280464       -0.5330381907      -19.2489649712  MEMB      142             0.0000000000
     16456       142  SLPC      H15B           31.3230188458       -2.3732720326      -19.0611098773  MEMB      142             0.0000000000
     16457       142  SLPC      H15C           30.4273630255       -1.4786188663      -20.2673216482  MEMB      142             0.0000000000
     16458       142  SLPC      C12            28.7678121816       -2.4733786690      -18.3464577271  MEMB      142             0.0000000000
     16459       142  SLPC      H12A           29.2337460843       -3.2557200685      -17.7657275739  MEMB      142             0.0000000000
     16460       142  SLPC      H12B           28.9108266462       -2.8695835508      -19.3409267329  MEMB      142             0.0000000000
     16461       142  SLPC      C11            27.2652480662       -2.3085916784      -17.9342730045  MEMB      142             0.0000000000
     16462       142  SLPC      H11A           26.9587815776       -3.3624791401      -18.1066694665  MEMB      142             0.0000000000
     16463       142  SLPC      H11B           26.6690661009       -1.6849646905      -18.6342570615  MEMB      142             0.0000000000
     16464       142  SLPC      P              27.0788154928       -2.8519597746      -15.4093384634  MEMB      142             0.0000000000
     16465       142  SLPC      O13            27.3840533785       -2.1058588785      -14.1614208895  MEMB      142             0.0000000000
     16466       142  SLPC      O14            25.7471957047       -3.4888252375      -15.5442603319  MEMB      142             0.0000000000
     16467       142  SLPC      O12            27.2623781767       -1.8457260359      -16.6285093813  MEMB      142             0.0000000000
     16468       142  SLPC      O11            28.3114583289       -3.7986263602      -15.6901423823  MEMB      142             0.0000000000
     16469       142  SLPC      C1             28.2485385796       -5.0489208767      -16.3129176805  MEMB      142             0.0000000000
     16470       142  SLPC      HA             27.3434661997       -5.6636962747      -16.1200020578  MEMB      142             0.0000000000
     16471       142  SLPC      HB             28.3823135322       -4.9418087262      -17.4106208258  MEMB      142             0.0000000000
     16472       142  SLPC      C2             29.6092786589       -5.8143966436      -15.9763810317  MEMB      142             0.0000000000
     16473       142  SLPC      HS             29.6611431586       -6.7168086536      -16.6223560004  MEMB      142             0.0000000000
     16474       142  SLPC      O21            29.6727652490       -6.2206146027      -14.5721153602  MEMB      142             0.0000000000
     16475       142  SLPC      C21            29.0271626643       -7.2424164546      -14.2119672834  MEMB      142             0.0000000000
     16476       142  SLPC      O22            28.2760087472       -7.9191964904      -14.9197221524  MEMB      142             0.0000000000
     16477       142  SLPC      C22            29.2776161787       -7.3799047251      -12.7684153503  MEMB      142             0.0000000000
     16478       142  SLPC      H2R            28.9005007039       -6.4122974064      -12.3736483611  MEMB      142             0.0000000000
     16479       142  SLPC      H2S            28.5912239272       -8.1213526980      -12.3064177881  MEMB      142             0.0000000000
     16480       142  SLPC      C3             30.8875735694       -5.0632794878      -16.3092615286  MEMB      142             0.0000000000
     16481       142  SLPC      HX             30.7673434550       -4.7310799991      -17.3625939458  MEMB      142             0.0000000000
     16482       142  SLPC      HY             31.7822437865       -5.7131200934      -16.4169328620  MEMB      142             0.0000000000
     16483       142  SLPC      O31            31.1914289449       -3.8562610741      -15.6071700603  MEMB      142             0.0000000000
     16484       142  SLPC      C31            32.1479415843       -3.9922827051      -14.6849726479  MEMB      142             0.0000000000
     16485       142  SLPC      O32            32.8187338081       -4.9438749577      -14.4457911489  MEMB      142             0.0000000000
     16486       142  SLPC      C32            32.4366749815       -2.6200798902      -14.0305451152  MEMB      142             0.0000000000
     16487       142  SLPC      H2X            31.6296170266       -1.8591417857      -14.0934067103  MEMB      142             0.0000000000
     16488       142  SLPC      H2Y            33.1176063764       -2.0712710768      -14.7157186188  MEMB      142             0.0000000000
     16489       142  SLPC      C23            30.7127449233       -7.7947891928      -12.4229486572  MEMB      142             0.0000000000
     16490       142  SLPC      H3R            31.2546227354       -6.9942370266      -12.9704935653  MEMB      142             0.0000000000
     16491       142  SLPC      H3S            31.0808010324       -8.7925516583      -12.7443929692  MEMB      142             0.0000000000
     16492       142  SLPC      C24            31.0083502692       -7.4559622462      -10.9229417635  MEMB      142             0.0000000000
     16493       142  SLPC      H4R            30.3728903775       -8.1964694421      -10.3917537410  MEMB      142             0.0000000000
     16494       142  SLPC      H4S            30.5723710080       -6.4919787363      -10.5838561160  MEMB      142             0.0000000000
     16495       142  SLPC      C25            32.5066617620       -7.4636193195      -10.6451991288  MEMB      142             0.0000000000
     16496       142  SLPC      H5R            33.0889179082       -6.5676720762      -10.9494645153  MEMB      142             0.0000000000
     16497       142  SLPC      H5S            33.1068898893       -8.2778304085      -11.1046636524  MEMB      142             0.0000000000
     16498       142  SLPC      C26            32.6899697621       -7.7569573931       -9.1897126057  MEMB      142             0.0000000000
     16499       142  SLPC      H6R            33.7686352916       -7.7014748980       -8.9294768828  MEMB      142             0.0000000000
     16500       142  SLPC      H6S            32.2601483374       -8.7599146575       -8.9807844304  MEMB      142             0.0000000000
     16501       142  SLPC      C27            31.9146597461       -6.8983750014       -8.2626168830  MEMB      142             0.0000000000
     16502       142  SLPC      H7R            32.2040372638       -7.0568408310       -7.2017346872  MEMB      142             0.0000000000
     16503       142  SLPC      H7S            30.8214316896       -7.0889232706       -8.3161405013  MEMB      142             0.0000000000
     16504       142  SLPC      C28            32.3609884825       -5.4444161884       -8.5443221537  MEMB      142             0.0000000000
     16505       142  SLPC      H8R            31.7202351306       -4.8837540400       -7.8305898782  MEMB      142             0.0000000000
     16506       142  SLPC      H8S            31.9619680171       -5.1891858500       -9.5492904545  MEMB      142             0.0000000000
     16507       142  SLPC      C29            33.7380451936       -4.8414507981       -8.4019453733  MEMB      142             0.0000000000
     16508       142  SLPC      H9R            34.4302950124       -5.0177249452       -9.2384370514  MEMB      142             0.0000000000
     16509       142  SLPC      C210           34.2427107582       -3.9945393314       -7.4729814559  MEMB      142             0.0000000000
     16510       142  SLPC      H10R           35.2550351318       -3.5860207701       -7.6083036102  MEMB      142             0.0000000000
     16511       142  SLPC      C211           33.5139270828       -3.3964047595       -6.2654622817  MEMB      142             0.0000000000
     16512       142  SLPC      H11R           34.2658338719       -3.6441478994       -5.4859881396  MEMB      142             0.0000000000
     16513       142  SLPC      H11S           32.6068571482       -3.9889773969       -6.0196919501  MEMB      142             0.0000000000
     16514       142  SLPC      C212           33.1779621432       -1.9280026007       -6.3708178878  MEMB      142             0.0000000000
     16515       142  SLPC      H12R           34.0872558067       -1.3195578782       -6.4847452736  MEMB      142             0.0000000000
     16516       142  SLPC      C213           31.9955077580       -1.2585628668       -6.2503852108  MEMB      142             0.0000000000
     16517       142  SLPC      H13R           31.9689187716       -0.1839087270       -6.4836476805  MEMB      142             0.0000000000
     16518       142  SLPC      C214           30.6886426609       -1.8961313756       -5.9134352051  MEMB      142             0.0000000000
     16519       142  SLPC      H14R           30.6990267738       -2.9746305823       -6.1799924089  MEMB      142             0.0000000000
     16520       142  SLPC      H14S           29.8821302853       -1.4542809694       -6.5368357859  MEMB      142             0.0000000000
     16521       142  SLPC      C215           30.2738583956       -1.6605686780       -4.4594572407  MEMB      142             0.0000000000
     16522       142  SLPC      H15R           29.2412899312       -2.0196672120       -4.2615391060  MEMB      142             0.0000000000
     16523       142  SLPC      H15S           30.2903505865       -0.5616648917       -4.2967928155  MEMB      142             0.0000000000
     16524       142  SLPC      C216           31.2034974953       -2.2916233663       -3.4469258894  MEMB      142             0.0000000000
     16525       142  SLPC      H16R           32.0512992982       -1.5895450384       -3.2964621868  MEMB      142             0.0000000000
     16526       142  SLPC      H16S           31.5890624271       -3.2779634567       -3.7827735334  MEMB      142             0.0000000000
     16527       142  SLPC      C217           30.5237747882       -2.4648268188       -2.0513813131  MEMB      142             0.0000000000
     16528       142  SLPC      H17R           29.5761546555       -3.0001997283       -2.2743452933  MEMB      142             0.0000000000
     16529       142  SLPC      H17S           30.3587008359       -1.4485284412       -1.6339976657  MEMB      142             0.0000000000
     16530       142  SLPC      C218           31.1932277186       -3.4989207650       -1.1301448605  MEMB      142             0.0000000000
     16531       142  SLPC      H18R           31.8940115032       -3.0997821009       -0.3660037259  MEMB      142             0.0000000000
     16532       142  SLPC      H18S           31.8206327004       -4.2510073764       -1.6545964964  MEMB      142             0.0000000000
     16533       142  SLPC      H18T           30.4479875688       -4.0671186389       -0.5334127437  MEMB      142             0.0000000000
     16534       142  SLPC      C33            33.0607119146       -2.6517864832      -12.6125743299  MEMB      142             0.0000000000
     16535       142  SLPC      H3X            33.5262653579       -1.6546917008      -12.4596594256  MEMB      142             0.0000000000
     16536       142  SLPC      H3Y            33.8914984454       -3.3874210682      -12.5582038740  MEMB      142             0.0000000000
     16537       142  SLPC      C34            31.9915637844       -3.0118044747      -11.5116125199  MEMB      142             0.0000000000
     16538       142  SLPC      H4X            32.4253579435       -3.3663848743      -10.5522289919  MEMB      142             0.0000000000
     16539       142  SLPC      H4Y            31.2903514821       -3.7580088464      -11.9426591453  MEMB      142             0.0000000000
     16540       142  SLPC      C35            31.1131134170       -1.8138126858      -11.1206623306  MEMB      142             0.0000000000
     16541       142  SLPC      H5X            30.4907055544       -1.4199418970      -11.9524047463  MEMB      142             0.0000000000
     16542       142  SLPC      H5Y            31.7102668803       -0.9284764694      -10.8142176213  MEMB      142             0.0000000000
     16543       142  SLPC      C36            30.0451841604       -2.2307598606      -10.0446226464  MEMB      142             0.0000000000
     16544       142  SLPC      H6X            29.5322705793       -1.2628440180       -9.8592049612  MEMB      142             0.0000000000
     16545       142  SLPC      H6Y            30.5773551395       -2.5876896320       -9.1370347515  MEMB      142             0.0000000000
     16546       142  SLPC      C37            29.0284262997       -3.3249119064      -10.5119868937  MEMB      142             0.0000000000
     16547       142  SLPC      H7X            29.4562678726       -4.2451173518      -10.0597760454  MEMB      142             0.0000000000
     16548       142  SLPC      H7Y            28.9594826995       -3.4760896347      -11.6104919185  MEMB      142             0.0000000000
     16549       142  SLPC      C38            27.5935601129       -3.1584505970       -9.9748843195  MEMB      142             0.0000000000
     16550       142  SLPC      H8X            27.0538389215       -4.0291489733      -10.4048916245  MEMB      142             0.0000000000
     16551       142  SLPC      H8Y            27.1951349306       -2.1769937319      -10.3100264876  MEMB      142             0.0000000000
     16552       142  SLPC      C39            27.4178457667       -3.2180081625       -8.4610026176  MEMB      142             0.0000000000
     16553       142  SLPC      H9X            27.7167522737       -2.2454772262       -8.0147296291  MEMB      142             0.0000000000
     16554       142  SLPC      H9Y            28.1544755234       -3.9917054756       -8.1558969674  MEMB      142             0.0000000000
     16555       142  SLPC      C310           25.9633784209       -3.5466436332       -8.0676892884  MEMB      142             0.0000000000
     16556       142  SLPC      H10X           25.4605364565       -4.2768861567       -8.7371796562  MEMB      142             0.0000000000
     16557       142  SLPC      H10Y           25.3550438545       -2.6305218487       -8.2257120655  MEMB      142             0.0000000000
     16558       142  SLPC      C311           25.6533180706       -4.0191148407       -6.6095126836  MEMB      142             0.0000000000
     16559       142  SLPC      H11X           26.1550972585       -5.0067126335       -6.5247248485  MEMB      142             0.0000000000
     16560       142  SLPC      H11Y           24.5563816021       -4.0729486785       -6.4417226156  MEMB      142             0.0000000000
     16561       142  SLPC      C312           26.1881175879       -3.0539177211       -5.5102202685  MEMB      142             0.0000000000
     16562       142  SLPC      H12X           25.5926794862       -2.1174026221       -5.5623160727  MEMB      142             0.0000000000
     16563       142  SLPC      H12Y           27.2342470473       -2.7636577530       -5.7461935701  MEMB      142             0.0000000000
     16564       142  SLPC      C313           26.3005899863       -3.7948595982       -4.1340047747  MEMB      142             0.0000000000
     16565       142  SLPC      H13X           25.2586268322       -3.9747696070       -3.7930260352  MEMB      142             0.0000000000
     16566       142  SLPC      H13Y           26.8058953408       -3.1754633724       -3.3624242341  MEMB      142             0.0000000000
     16567       142  SLPC      C314           27.0215403403       -5.2311937739       -4.1491276644  MEMB      142             0.0000000000
     16568       142  SLPC      H14X           26.4668191480       -5.9044482504       -4.8371198280  MEMB      142             0.0000000000
     16569       142  SLPC      H14Y           26.9904334035       -5.6217886276       -3.1095176189  MEMB      142             0.0000000000
     16570       142  SLPC      C315           28.5177052827       -5.2952900113       -4.5915998867  MEMB      142             0.0000000000
     16571       142  SLPC      H15X           29.1651531592       -4.6481120354       -3.9620817686  MEMB      142             0.0000000000
     16572       142  SLPC      H15Y           28.4558726760       -4.9294876225       -5.6388278332  MEMB      142             0.0000000000
     16573       142  SLPC      C316           29.1400174464       -6.7376117572       -4.7032424269  MEMB      142             0.0000000000
     16574       142  SLPC      H16X           30.1115782544       -6.5729900829       -5.2163610883  MEMB      142             0.0000000000
     16575       142  SLPC      H16Y           28.5093516468       -7.4032450426       -5.3305500070  MEMB      142             0.0000000000
     16576       142  SLPC      C317           29.3289208932       -7.3371135963       -3.3082033965  MEMB      142             0.0000000000
     16577       142  SLPC      H17X           28.2723965908       -7.5359488947       -3.0279496786  MEMB      142             0.0000000000
     16578       142  SLPC      H17Y           29.7186024895       -6.5567414616       -2.6200988929  MEMB      142             0.0000000000
     16579       142  SLPC      C318           30.2297258823       -8.6306310767       -3.2670869627  MEMB      142             0.0000000000
     16580       142  SLPC      H18X           30.2667455692       -9.0344266946       -2.2327277283  MEMB      142             0.0000000000
     16581       142  SLPC      H18Y           31.2696582487       -8.3618835401       -3.5510521288  MEMB      142             0.0000000000
     16582       142  SLPC      H18Z           29.8611354188       -9.3615587771       -4.0182234770  MEMB      142             0.0000000000
     16583       143  CHL1      C3             27.4918031985      -10.1765218215      -17.3467600000  MEMB      143             0.0000000000
     16584       143  CHL1      H3             28.0276968563      -11.1322210766      -17.5305600000  MEMB      143             0.0000000000
     16585       143  CHL1      O3             27.2972188108       -9.7233239662      -18.6532400000  MEMB      143             0.0000000000
     16586       143  CHL1      H3'            26.7277956344       -8.9504869773      -18.6624800000  MEMB      143             0.0000000000
     16587       143  CHL1      C4             26.1141146577      -10.2937397509      -16.6735600000  MEMB      143             0.0000000000
     16588       143  CHL1      H4A            25.5051111915       -9.3877218900      -16.8798500000  MEMB      143             0.0000000000
     16589       143  CHL1      H4B            25.5615270104      -11.0819543769      -17.2282700000  MEMB      143             0.0000000000
     16590       143  CHL1      C5             26.0632942139      -10.4759588964      -15.2069800000  MEMB      143             0.0000000000
     16591       143  CHL1      C6             25.3411042572      -11.4678030508      -14.6416600000  MEMB      143             0.0000000000
     16592       143  CHL1      H6             24.6734531470      -12.1554322504      -15.1814700000  MEMB      143             0.0000000000
     16593       143  CHL1      C7             25.2453595983      -11.6259138803      -13.1714400000  MEMB      143             0.0000000000
     16594       143  CHL1      H7A            24.1888196023      -11.8504851024      -12.9114300000  MEMB      143             0.0000000000
     16595       143  CHL1      H7B            25.7833464110      -12.5708507934      -12.9434300000  MEMB      143             0.0000000000
     16596       143  CHL1      C8             25.9487084290      -10.5411684962      -12.3216500000  MEMB      143             0.0000000000
     16597       143  CHL1      H8             25.2804919719       -9.6570578785      -12.4000500000  MEMB      143             0.0000000000
     16598       143  CHL1      C14            26.1107701083      -10.9032424237      -10.8273300000  MEMB      143             0.0000000000
     16599       143  CHL1      H14            26.7912094645      -11.7785051921      -10.7549100000  MEMB      143             0.0000000000
     16600       143  CHL1      C15            24.8257155451      -11.4507574030      -10.0475600000  MEMB      143             0.0000000000
     16601       143  CHL1      H15A           23.9728247633      -10.8052748615      -10.3479700000  MEMB      143             0.0000000000
     16602       143  CHL1      H15B           24.6680411797      -12.5052598025      -10.3597900000  MEMB      143             0.0000000000
     16603       143  CHL1      C16            25.1634425888      -11.1505618385       -8.5675900000  MEMB      143             0.0000000000
     16604       143  CHL1      H16A           24.4312380030      -10.3624521050       -8.2899500000  MEMB      143             0.0000000000
     16605       143  CHL1      H16B           25.0866499633      -12.0270127028       -7.8891700000  MEMB      143             0.0000000000
     16606       143  CHL1      C17            26.5852715929      -10.4609229301       -8.5034700000  MEMB      143             0.0000000000
     16607       143  CHL1      H17            27.2772127227      -11.3186867927       -8.3628300000  MEMB      143             0.0000000000
     16608       143  CHL1      C13            26.7196259100       -9.8512010144       -9.9628700000  MEMB      143             0.0000000000
     16609       143  CHL1      C18            25.8732416734       -8.5515742009       -9.9847100000  MEMB      143             0.0000000000
     16610       143  CHL1      H18A           24.8926777395       -8.5108248945       -9.4639700000  MEMB      143             0.0000000000
     16611       143  CHL1      H18B           26.4107324407       -7.7291170456       -9.4660700000  MEMB      143             0.0000000000
     16612       143  CHL1      H18C           25.7193477291       -8.1818255159      -11.0210100000  MEMB      143             0.0000000000
     16613       143  CHL1      C12            28.1690091959       -9.6460304157      -10.5786100000  MEMB      143             0.0000000000
     16614       143  CHL1      H12A           28.6265491939       -8.8875155014       -9.9080700000  MEMB      143             0.0000000000
     16615       143  CHL1      H12B           28.6387629741      -10.6513939348      -10.6324600000  MEMB      143             0.0000000000
     16616       143  CHL1      C11            28.1116617051       -9.1873504988      -12.0189200000  MEMB      143             0.0000000000
     16617       143  CHL1      H11A           27.7189306003       -8.1493977792      -12.0711000000  MEMB      143             0.0000000000
     16618       143  CHL1      H11B           29.1531909108       -9.0996239808      -12.3955600000  MEMB      143             0.0000000000
     16619       143  CHL1      C9             27.2731002401      -10.1003438976      -12.9601300000  MEMB      143             0.0000000000
     16620       143  CHL1      H9             27.8083855421      -11.0696159343      -13.0511800000  MEMB      143             0.0000000000
     16621       143  CHL1      C10            27.0615423975       -9.5535754810      -14.3130600000  MEMB      143             0.0000000000
     16622       143  CHL1      C19            26.6178595919       -8.1305327275      -14.2838400000  MEMB      143             0.0000000000
     16623       143  CHL1      H19A           27.3486925576       -7.4552520028      -13.7896700000  MEMB      143             0.0000000000
     16624       143  CHL1      H19B           26.4700130599       -7.6890174847      -15.2925700000  MEMB      143             0.0000000000
     16625       143  CHL1      H19C           25.6478690756       -7.9789647523      -13.7637700000  MEMB      143             0.0000000000
     16626       143  CHL1      C1             28.4447376161       -9.5534353442      -15.0444900000  MEMB      143             0.0000000000
     16627       143  CHL1      H1A            29.1536759255       -8.8332923756      -14.5828500000  MEMB      143             0.0000000000
     16628       143  CHL1      H1B            28.8176862117      -10.5816169417      -14.8493200000  MEMB      143             0.0000000000
     16629       143  CHL1      C2             28.4144167979       -9.2820097566      -16.5689100000  MEMB      143             0.0000000000
     16630       143  CHL1      H2A            29.4404067658       -9.5299454495      -16.9155900000  MEMB      143             0.0000000000
     16631       143  CHL1      H2B            28.2663117215       -8.2090650489      -16.8162300000  MEMB      143             0.0000000000
     16632       143  CHL1      C20            26.7394719779       -9.5006526719       -7.2621400000  MEMB      143             0.0000000000
     16633       143  CHL1      H20            25.8208836025       -8.8792946533       -7.1956600000  MEMB      143             0.0000000000
     16634       143  CHL1      C21            28.0016630641       -8.6079142422       -7.3014700000  MEMB      143             0.0000000000
     16635       143  CHL1      H21A           28.1833556781       -8.1573367214       -8.3006100000  MEMB      143             0.0000000000
     16636       143  CHL1      H21B           28.9169818738       -9.1380970112       -6.9617300000  MEMB      143             0.0000000000
     16637       143  CHL1      H21C           27.7335586757       -7.7429982035       -6.6577700000  MEMB      143             0.0000000000
     16638       143  CHL1      C22            26.6253863248      -10.3133300481       -5.8690000000  MEMB      143             0.0000000000
     16639       143  CHL1      H22A           25.5434733943      -10.5384999336       -5.7546000000  MEMB      143             0.0000000000
     16640       143  CHL1      H22B           27.2572658293      -11.2201218383       -5.9819700000  MEMB      143             0.0000000000
     16641       143  CHL1      C23            27.0905722724       -9.5068833130       -4.6760400000  MEMB      143             0.0000000000
     16642       143  CHL1      H23A           28.1935691536       -9.3908625967       -4.6106300000  MEMB      143             0.0000000000
     16643       143  CHL1      H23B           26.7127375505       -8.4771633495       -4.8527700000  MEMB      143             0.0000000000
     16644       143  CHL1      C24            26.4779802635       -9.9038549113       -3.3229700000  MEMB      143             0.0000000000
     16645       143  CHL1      H24A           25.4279487339       -9.5497392136       -3.4027600000  MEMB      143             0.0000000000
     16646       143  CHL1      H24B           26.4422329373      -11.0113093988       -3.2419200000  MEMB      143             0.0000000000
     16647       143  CHL1      C25            27.0232446187       -9.3379904710       -2.0169500000  MEMB      143             0.0000000000
     16648       143  CHL1      H25            28.1059534157       -9.5856457596       -2.0441000000  MEMB      143             0.0000000000
     16649       143  CHL1      C26            26.9137769806       -7.8341599571       -2.0297400000  MEMB      143             0.0000000000
     16650       143  CHL1      H26A           27.2119285998       -7.4505037013       -1.0306200000  MEMB      143             0.0000000000
     16651       143  CHL1      H26B           27.5364894934       -7.3908774885       -2.8360000000  MEMB      143             0.0000000000
     16652       143  CHL1      H26C           25.8769232099       -7.4604669952       -2.1697500000  MEMB      143             0.0000000000
     16653       143  CHL1      C27            26.2787273814       -9.7791918171       -0.7136700000  MEMB      143             0.0000000000
     16654       143  CHL1      H27A           26.8898932184       -9.4473094539        0.1527400000  MEMB      143             0.0000000000
     16655       143  CHL1      H27B           25.3488419082       -9.1799605556       -0.8163400000  MEMB      143             0.0000000000
     16656       143  CHL1      H27C           25.9209315767      -10.8298839618       -0.7620800000  MEMB      143             0.0000000000
     16657       144  SOPE      N             -26.9980490175       -6.6888369735      -24.0873664691  MEMB      144             0.0000000000
     16658       144  SOPE      HN1           -26.1223600642       -6.3210663631      -24.5110572474  MEMB      144             0.0000000000
     16659       144  SOPE      HN2           -26.9257485311       -7.7241244387      -24.0198931236  MEMB      144             0.0000000000
     16660       144  SOPE      HN3           -27.7325624875       -6.5989337351      -24.8181244370  MEMB      144             0.0000000000
     16661       144  SOPE      C12           -27.3036937112       -5.9307002173      -22.8076076866  MEMB      144             0.0000000000
     16662       144  SOPE      H12A          -27.5775483766       -4.8955792765      -23.1040014777  MEMB      144             0.0000000000
     16663       144  SOPE      H12B          -26.3175060481       -6.0173670485      -22.3033817903  MEMB      144             0.0000000000
     16664       144  SOPE      C11           -28.3774639604       -6.5676843905      -21.8379911449  MEMB      144             0.0000000000
     16665       144  SOPE      H11A          -29.1723396252       -6.8878815838      -22.5450749798  MEMB      144             0.0000000000
     16666       144  SOPE      H11B          -28.8960222145       -5.7644578784      -21.2720888650  MEMB      144             0.0000000000
     16667       144  SOPE      P             -28.8363621947       -8.2137578080      -19.8643226199  MEMB      144             0.0000000000
     16668       144  SOPE      O13           -28.9305404058       -9.7135926330      -20.0095801592  MEMB      144             0.0000000000
     16669       144  SOPE      O14           -30.0769915060       -7.4038413231      -19.8111455711  MEMB      144             0.0000000000
     16670       144  SOPE      O12           -27.8816097308       -7.6832023838      -21.0236958989  MEMB      144             0.0000000000
     16671       144  SOPE      O11           -28.0237302985       -8.0005670287      -18.5582904479  MEMB      144             0.0000000000
     16672       144  SOPE      C1            -26.6634744383       -7.5610432134      -18.5732577895  MEMB      144             0.0000000000
     16673       144  SOPE      HA            -26.6104969604       -6.5196534140      -18.9566919284  MEMB      144             0.0000000000
     16674       144  SOPE      HB            -26.1143528317       -8.1340263517      -19.3507387959  MEMB      144             0.0000000000
     16675       144  SOPE      C2            -25.9103757165       -7.9002334057      -17.2871435782  MEMB      144             0.0000000000
     16676       144  SOPE      HS            -24.8873239264       -8.3076701506      -17.4343890617  MEMB      144             0.0000000000
     16677       144  SOPE      O21           -26.6841574594       -8.8991326491      -16.5946059991  MEMB      144             0.0000000000
     16678       144  SOPE      C21           -26.0872904318       -9.7996488761      -15.7912920832  MEMB      144             0.0000000000
     16679       144  SOPE      O22           -24.9174188344       -9.7637748998      -15.5054365635  MEMB      144             0.0000000000
     16680       144  SOPE      C22           -27.1019025647      -10.8797084645      -15.2894042365  MEMB      144             0.0000000000
     16681       144  SOPE      H2R           -26.6496060784      -11.2996895915      -14.3656267813  MEMB      144             0.0000000000
     16682       144  SOPE      H2S           -27.1287685006      -11.6232983854      -16.1144338215  MEMB      144             0.0000000000
     16683       144  SOPE      C3            -25.8784587066       -6.6853214156      -16.4843826485  MEMB      144             0.0000000000
     16684       144  SOPE      HX            -25.5580458941       -5.8594655614      -17.1549190741  MEMB      144             0.0000000000
     16685       144  SOPE      HY            -25.2023661209       -6.6426426895      -15.6038159683  MEMB      144             0.0000000000
     16686       144  SOPE      O31           -27.1722205960       -6.2711752828      -16.0632698987  MEMB      144             0.0000000000
     16687       144  SOPE      C31           -27.2347414729       -5.3659376350      -15.0881494653  MEMB      144             0.0000000000
     16688       144  SOPE      O32           -26.3591914492       -4.8277544294      -14.4520840062  MEMB      144             0.0000000000
     16689       144  SOPE      C32           -28.7245356350       -5.0607913690      -14.8638584494  MEMB      144             0.0000000000
     16690       144  SOPE      H2X           -29.2317399740       -6.0150879597      -14.6062092653  MEMB      144             0.0000000000
     16691       144  SOPE      H2Y           -29.0071478808       -4.5579196703      -15.8133691903  MEMB      144             0.0000000000
     16692       144  SOPE      C23           -28.4858421767      -10.2095618116      -15.0075358138  MEMB      144             0.0000000000
     16693       144  SOPE      H3R           -29.0256191141      -11.0948185572      -14.6084337821  MEMB      144             0.0000000000
     16694       144  SOPE      H3S           -28.9103120746       -9.7921664132      -15.9455803872  MEMB      144             0.0000000000
     16695       144  SOPE      C24           -28.4830199701       -9.1501881221      -13.8814251114  MEMB      144             0.0000000000
     16696       144  SOPE      H4R           -27.6339506493       -9.3586553066      -13.1959006779  MEMB      144             0.0000000000
     16697       144  SOPE      H4S           -28.2866917542       -8.1351753876      -14.2882735938  MEMB      144             0.0000000000
     16698       144  SOPE      C25           -29.7574197459       -9.0726865489      -13.0672775783  MEMB      144             0.0000000000
     16699       144  SOPE      H5R           -29.8447330593       -8.0005519742      -12.7893841224  MEMB      144             0.0000000000
     16700       144  SOPE      H5S           -30.5735066079       -9.2824542205      -13.7913774711  MEMB      144             0.0000000000
     16701       144  SOPE      C26           -29.8942249152      -10.0326778732      -11.8736388829  MEMB      144             0.0000000000
     16702       144  SOPE      H6R           -30.9554606868       -9.9546403579      -11.5542491242  MEMB      144             0.0000000000
     16703       144  SOPE      H6S           -29.7931202784      -11.0842154878      -12.2176844053  MEMB      144             0.0000000000
     16704       144  SOPE      C27           -28.9165586652       -9.6106668729      -10.7788577989  MEMB      144             0.0000000000
     16705       144  SOPE      H7R           -27.8514627266       -9.5482703719      -11.0886936904  MEMB      144             0.0000000000
     16706       144  SOPE      H7S           -29.2746253026       -8.6212433545      -10.4222758476  MEMB      144             0.0000000000
     16707       144  SOPE      C28           -28.8964434949      -10.6488812012       -9.6158161059  MEMB      144             0.0000000000
     16708       144  SOPE      H8R           -29.9714681417      -10.7387577095       -9.3501743882  MEMB      144             0.0000000000
     16709       144  SOPE      H8S           -28.4940252844      -11.5460880731      -10.1329231670  MEMB      144             0.0000000000
     16710       144  SOPE      C29           -27.9351021803      -10.3544796459       -8.4357174081  MEMB      144             0.0000000000
     16711       144  SOPE      H91           -26.8975562550      -10.1326763020       -8.7260647396  MEMB      144             0.0000000000
     16712       144  SOPE      C210          -28.3217195933      -10.5045812411       -7.1671230324  MEMB      144             0.0000000000
     16713       144  SOPE      H101          -27.5927842754      -10.5081002491       -6.3433268227  MEMB      144             0.0000000000
     16714       144  SOPE      C211          -29.6889200353      -10.9414116917       -6.7881533505  MEMB      144             0.0000000000
     16715       144  SOPE      H11R          -30.0016875974      -11.9213002348       -7.2080531534  MEMB      144             0.0000000000
     16716       144  SOPE      H11S          -30.4213537386      -10.1187235830       -6.9332266444  MEMB      144             0.0000000000
     16717       144  SOPE      C212          -29.7228846117      -11.2822077595       -5.2791969797  MEMB      144             0.0000000000
     16718       144  SOPE      H12R          -30.7892722848      -11.5114092268       -5.0679992313  MEMB      144             0.0000000000
     16719       144  SOPE      H12S          -29.3779073944      -10.3218083391       -4.8399424329  MEMB      144             0.0000000000
     16720       144  SOPE      C213          -28.8632523001      -12.4254533077       -4.7537758402  MEMB      144             0.0000000000
     16721       144  SOPE      H13R          -27.7791968136      -12.1858679006       -4.7955297280  MEMB      144             0.0000000000
     16722       144  SOPE      H13S          -29.1893763604      -13.3164352493       -5.3318029830  MEMB      144             0.0000000000
     16723       144  SOPE      C214          -29.2043721785      -12.7162794853       -3.2687302121  MEMB      144             0.0000000000
     16724       144  SOPE      H14R          -28.6345277272      -13.6121629514       -2.9416365263  MEMB      144             0.0000000000
     16725       144  SOPE      H14S          -30.2768581499      -13.0050246765       -3.2418829917  MEMB      144             0.0000000000
     16726       144  SOPE      C215          -29.0092470511      -11.4418020110       -2.4004494189  MEMB      144             0.0000000000
     16727       144  SOPE      H15R          -29.4720449196      -10.5224638763       -2.8187270371  MEMB      144             0.0000000000
     16728       144  SOPE      H15S          -27.9379583969      -11.1495201555       -2.3653399101  MEMB      144             0.0000000000
     16729       144  SOPE      C216          -29.5019482008      -11.5654782552       -0.9424268644  MEMB      144             0.0000000000
     16730       144  SOPE      H16R          -29.2295669658      -10.5905096415       -0.4846417465  MEMB      144             0.0000000000
     16731       144  SOPE      H16S          -28.8542219121      -12.3072920817       -0.4281465157  MEMB      144             0.0000000000
     16732       144  SOPE      C217          -30.9710075271      -11.9360040005       -0.8086414797  MEMB      144             0.0000000000
     16733       144  SOPE      H17R          -31.2358092200      -11.7763203619        0.2584582208  MEMB      144             0.0000000000
     16734       144  SOPE      H17S          -31.1562766244      -12.9722474845       -1.1638832544  MEMB      144             0.0000000000
     16735       144  SOPE      C218          -31.8860800682      -10.8768326227       -1.6111016421  MEMB      144             0.0000000000
     16736       144  SOPE      H18R          -32.9483190938      -11.1646955949       -1.4591025897  MEMB      144             0.0000000000
     16737       144  SOPE      H18S          -31.6284694139      -10.9304848773       -2.6904904920  MEMB      144             0.0000000000
     16738       144  SOPE      H18T          -31.7833726743       -9.8193114592       -1.2864146293  MEMB      144             0.0000000000
     16739       144  SOPE      C33           -29.0391926041       -4.2368847690      -13.5957050715  MEMB      144             0.0000000000
     16740       144  SOPE      H3X           -28.3159670135       -3.3937218769      -13.5772130696  MEMB      144             0.0000000000
     16741       144  SOPE      H3Y           -28.7619264015       -4.8617902999      -12.7199554776  MEMB      144             0.0000000000
     16742       144  SOPE      C34           -30.4350465449       -3.7008342845      -13.6111752533  MEMB      144             0.0000000000
     16743       144  SOPE      H4X           -30.6175412316       -3.3566737056      -14.6516415393  MEMB      144             0.0000000000
     16744       144  SOPE      H4Y           -30.4681757324       -2.8460452310      -12.9022610826  MEMB      144             0.0000000000
     16745       144  SOPE      C35           -31.5506231989       -4.6813428964      -13.1840340102  MEMB      144             0.0000000000
     16746       144  SOPE      H5X           -31.5873035434       -5.6325035441      -13.7569814716  MEMB      144             0.0000000000
     16747       144  SOPE      H5Y           -32.4878668215       -4.1273723598      -13.4054210907  MEMB      144             0.0000000000
     16748       144  SOPE      C36           -31.5823623574       -5.0729402865      -11.7060521689  MEMB      144             0.0000000000
     16749       144  SOPE      H6X           -32.0078100497       -4.2093659834      -11.1514750526  MEMB      144             0.0000000000
     16750       144  SOPE      H6Y           -30.5598489414       -5.2180555200      -11.2965043724  MEMB      144             0.0000000000
     16751       144  SOPE      C37           -32.2992173884       -6.3503317721      -11.3615077222  MEMB      144             0.0000000000
     16752       144  SOPE      H7X           -31.5748938060       -7.1650483673      -11.5757812322  MEMB      144             0.0000000000
     16753       144  SOPE      H7Y           -33.2268541346       -6.4811627416      -11.9587470937  MEMB      144             0.0000000000
     16754       144  SOPE      C38           -32.6449071204       -6.4557962043       -9.8476411495  MEMB      144             0.0000000000
     16755       144  SOPE      H8X           -33.0146288277       -7.4674645108       -9.5753291286  MEMB      144             0.0000000000
     16756       144  SOPE      H8Y           -33.3391501018       -5.6552813302       -9.5136895003  MEMB      144             0.0000000000
     16757       144  SOPE      C39           -31.3573688240       -6.3430818416       -8.8916469208  MEMB      144             0.0000000000
     16758       144  SOPE      H9X           -31.0051538148       -5.2912723250       -8.9545942847  MEMB      144             0.0000000000
     16759       144  SOPE      H9Y           -30.5266045374       -6.9272105972       -9.3421414258  MEMB      144             0.0000000000
     16760       144  SOPE      C310          -31.4676894678       -6.6614969943       -7.4306230588  MEMB      144             0.0000000000
     16761       144  SOPE      H10X          -31.4559859822       -7.7619716984       -7.2785065800  MEMB      144             0.0000000000
     16762       144  SOPE      H10Y          -32.4583811274       -6.3766348729       -7.0162505793  MEMB      144             0.0000000000
     16763       144  SOPE      C311          -30.2338698095       -6.2852861056       -6.5300657368  MEMB      144             0.0000000000
     16764       144  SOPE      H11X          -29.3221250575       -6.4743124298       -7.1361282893  MEMB      144             0.0000000000
     16765       144  SOPE      H11Y          -30.3552402612       -7.0269055713       -5.7117803070  MEMB      144             0.0000000000
     16766       144  SOPE      C312          -30.2135678113       -4.7610528042       -6.2638249533  MEMB      144             0.0000000000
     16767       144  SOPE      H12X          -30.5443175638       -4.2634997782       -7.2005031444  MEMB      144             0.0000000000
     16768       144  SOPE      H12Y          -29.1631141035       -4.5037486332       -6.0095363459  MEMB      144             0.0000000000
     16769       144  SOPE      C313          -30.9921804578       -4.2763419785       -5.0807750569  MEMB      144             0.0000000000
     16770       144  SOPE      H13X          -32.0754817572       -4.5177940838       -5.1305751896  MEMB      144             0.0000000000
     16771       144  SOPE      H13Y          -30.9654473783       -3.1765882924       -4.9253773885  MEMB      144             0.0000000000
     16772       144  SOPE      C314          -30.7014950659       -4.9205271455       -3.7131767737  MEMB      144             0.0000000000
     16773       144  SOPE      H14X          -29.6679526110       -4.6031799953       -3.4574391805  MEMB      144             0.0000000000
     16774       144  SOPE      H14Y          -30.7522069630       -6.0296372803       -3.6728789270  MEMB      144             0.0000000000
     16775       144  SOPE      C315          -31.5830193756       -4.3420761885       -2.5931945732  MEMB      144             0.0000000000
     16776       144  SOPE      H15X          -32.6150168914       -4.2428442672       -2.9925129551  MEMB      144             0.0000000000
     16777       144  SOPE      H15Y          -31.2986330514       -3.2736859675       -2.4837058830  MEMB      144             0.0000000000
     16778       144  SOPE      C316          -31.6107457270       -5.0828711675       -1.2803176241  MEMB      144             0.0000000000
     16779       144  SOPE      H16X          -31.9260490630       -6.1256925189       -1.4980978216  MEMB      144             0.0000000000
     16780       144  SOPE      H16Y          -32.4410748097       -4.6883087987       -0.6564620543  MEMB      144             0.0000000000
     16781       144  SOPE      C317          -30.2492424994       -5.2725355610       -0.5352420710  MEMB      144             0.0000000000
     16782       144  SOPE      H17X          -30.0004681890       -4.2767651226       -0.1099502245  MEMB      144             0.0000000000
     16783       144  SOPE      H17Y          -29.6790768185       -5.4565700037       -1.4708511029  MEMB      144             0.0000000000
     16784       144  SOPE      C318          -30.2628899334       -6.3787325904        0.5050988625  MEMB      144             0.0000000000
     16785       144  SOPE      H18X          -30.8882255660       -6.2174966973        1.4091335959  MEMB      144             0.0000000000
     16786       144  SOPE      H18Y          -29.2039587071       -6.5638123375        0.7856893907  MEMB      144             0.0000000000
     16787       144  SOPE      H18Z          -30.5328841001       -7.3779336277        0.1013398894  MEMB      144             0.0000000000
     16788       145  OSM       N              -3.5394722446      -26.6332891717      -20.7695877452  MEMB      145             0.0000000000
     16789       145  OSM       C15            -3.6397631901      -25.1720232264      -20.8894730812  MEMB      145             0.0000000000
     16790       145  OSM       H15A           -3.7374229201      -24.8815661253      -21.9250875050  MEMB      145             0.0000000000
     16791       145  OSM       H15B           -2.7232600944      -24.7530181890      -20.5010699623  MEMB      145             0.0000000000
     16792       145  OSM       H15C           -4.4991106033      -24.7745042458      -20.3699535680  MEMB      145             0.0000000000
     16793       145  OSM       C14            -2.1756622328      -27.0201988772      -21.3755547894  MEMB      145             0.0000000000
     16794       145  OSM       H14A           -1.8953977263      -28.0037635364      -21.0284924287  MEMB      145             0.0000000000
     16795       145  OSM       H14B           -1.4482288947      -26.2931258251      -21.0460006495  MEMB      145             0.0000000000
     16796       145  OSM       H14C           -2.1594650854      -27.0810346008      -22.4537183076  MEMB      145             0.0000000000
     16797       145  OSM       C13            -3.5219142513      -27.0053202768      -19.3112009482  MEMB      145             0.0000000000
     16798       145  OSM       H13A           -3.3004411961      -28.0474364072      -19.1341594480  MEMB      145             0.0000000000
     16799       145  OSM       H13B           -4.5233171192      -26.9088297012      -18.9184137670  MEMB      145             0.0000000000
     16800       145  OSM       H13C           -2.7621652806      -26.4020077652      -18.8366534096  MEMB      145             0.0000000000
     16801       145  OSM       C12            -4.8105401566      -27.3949486213      -21.3798463650  MEMB      145             0.0000000000
     16802       145  OSM       H12A           -4.7670016098      -27.4008085153      -22.4589524699  MEMB      145             0.0000000000
     16803       145  OSM       H12B           -5.6761699028      -26.8570394110      -21.0224405014  MEMB      145             0.0000000000
     16804       145  OSM       C11            -4.8630582399      -28.9195822202      -21.0353211035  MEMB      145             0.0000000000
     16805       145  OSM       H11A           -5.7319069492      -29.3505599542      -21.5772446576  MEMB      145             0.0000000000
     16806       145  OSM       H11B           -5.0584119748      -29.1654170141      -19.9696179960  MEMB      145             0.0000000000
     16807       145  OSM       P              -3.1832624022      -31.0846089145      -21.3156837484  MEMB      145             0.0000000000
     16808       145  OSM       O13            -4.3654799949      -31.9259252840      -21.6569077359  MEMB      145             0.0000000000
     16809       145  OSM       O14            -1.8694274254      -31.3876956653      -21.9834026858  MEMB      145             0.0000000000
     16810       145  OSM       O11            -2.9511191549      -31.1306129229      -19.7483086256  MEMB      145             0.0000000000
     16811       145  OSM       O12            -3.6110751891      -29.6077686184      -21.5347131703  MEMB      145             0.0000000000
     16812       145  OSM       C1S            -1.9114885161      -30.4276896875      -19.0822999627  MEMB      145             0.0000000000
     16813       145  OSM       H1S            -1.9709021156      -29.3532857701      -19.3587909528  MEMB      145             0.0000000000
     16814       145  OSM       H1T            -0.9282199723      -30.7428299897      -19.4924104901  MEMB      145             0.0000000000
     16815       145  OSM       NF             -3.1083447708      -29.8009412112      -17.0043004735  MEMB      145             0.0000000000
     16816       145  OSM       HNF            -2.8804878073      -28.9522760877      -16.5332829224  MEMB      145             0.0000000000
     16817       145  OSM       C2S            -2.0121943322      -30.5965901940      -17.5239415856  MEMB      145             0.0000000000
     16818       145  OSM       H2S            -2.2283027126      -31.6634233126      -17.3014883374  MEMB      145             0.0000000000
     16819       145  OSM       C3S            -0.7351645099      -30.1928013913      -16.8807910227  MEMB      145             0.0000000000
     16820       145  OSM       H3S            -0.4062316698      -29.1759722208      -17.1844072536  MEMB      145             0.0000000000
     16821       145  OSM       O3              0.3136643168      -31.0974903519      -17.2289616009  MEMB      145             0.0000000000
     16822       145  OSM       HO3            -0.1691938442      -31.7046522275      -17.7944724473  MEMB      145             0.0000000000
     16823       145  OSM       C4S            -0.8388563677      -30.2590456722      -15.3531429363  MEMB      145             0.0000000000
     16824       145  OSM       H4S            -1.3852806262      -31.1479442554      -15.0048903379  MEMB      145             0.0000000000
     16825       145  OSM       C5S            -0.5294442030      -29.2975937695      -14.4766965960  MEMB      145             0.0000000000
     16826       145  OSM       H5S            -0.0471624721      -28.3525367037      -14.7669923512  MEMB      145             0.0000000000
     16827       145  OSM       C6S            -0.6489225136      -29.4392967393      -12.9312944036  MEMB      145             0.0000000000
     16828       145  OSM       H6S             0.2890337632      -29.3171099933      -12.3485167774  MEMB      145             0.0000000000
     16829       145  OSM       H6T            -1.0204411072      -30.4470574071      -12.6471937138  MEMB      145             0.0000000000
     16830       145  OSM       C7S            -1.6363579551      -28.4003870752      -12.3705374888  MEMB      145             0.0000000000
     16831       145  OSM       H7S            -2.6604737350      -28.6666078585      -12.7091145320  MEMB      145             0.0000000000
     16832       145  OSM       H7T            -1.2743665856      -27.3862215430      -12.6439446349  MEMB      145             0.0000000000
     16833       145  OSM       C8S            -1.4593985254      -28.4911311655      -10.8316511018  MEMB      145             0.0000000000
     16834       145  OSM       H8S            -0.5364951605      -27.9898184717      -10.4693579499  MEMB      145             0.0000000000
     16835       145  OSM       H8T            -1.3778457996      -29.5523861810      -10.5132044374  MEMB      145             0.0000000000
     16836       145  OSM       C9S            -2.6032656955      -27.7162828117      -10.0637271156  MEMB      145             0.0000000000
     16837       145  OSM       H9S            -3.5703436229      -28.1889521894      -10.3387994002  MEMB      145             0.0000000000
     16838       145  OSM       H9T            -2.6628400252      -26.6656761340      -10.4200943667  MEMB      145             0.0000000000
     16839       145  OSM       C10S           -2.5375444141      -27.6844404692       -8.5368055614  MEMB      145             0.0000000000
     16840       145  OSM       H10S           -1.8046882369      -26.8802002736       -8.3122165745  MEMB      145             0.0000000000
     16841       145  OSM       H10T           -2.1565486093      -28.6685690588       -8.1894525302  MEMB      145             0.0000000000
     16842       145  OSM       C11S           -3.9297757590      -27.2235562798       -7.8926329824  MEMB      145             0.0000000000
     16843       145  OSM       H11S           -4.7942035558      -27.8806752784       -8.1277498901  MEMB      145             0.0000000000
     16844       145  OSM       H11T           -4.1699566763      -26.2344628558       -8.3379737910  MEMB      145             0.0000000000
     16845       145  OSM       C12S           -3.9007930866      -27.0091956270       -6.2975697189  MEMB      145             0.0000000000
     16846       145  OSM       H12S           -2.9309993402      -26.5046710838       -6.0993865709  MEMB      145             0.0000000000
     16847       145  OSM       H12T           -3.8800835318      -28.0499162842       -5.9092497122  MEMB      145             0.0000000000
     16848       145  OSM       C13S           -5.0341575085      -26.1513139174       -5.7877019897  MEMB      145             0.0000000000
     16849       145  OSM       H13S           -5.9818195945      -26.7290227684       -5.7376029921  MEMB      145             0.0000000000
     16850       145  OSM       H13T           -5.1441213616      -25.3232859501       -6.5202306267  MEMB      145             0.0000000000
     16851       145  OSM       C14S           -5.0208395402      -25.6418567087       -4.2852247231  MEMB      145             0.0000000000
     16852       145  OSM       H14S           -4.6446626529      -26.4873344483       -3.6704233882  MEMB      145             0.0000000000
     16853       145  OSM       H14T           -6.0927082401      -25.5700192850       -4.0019264045  MEMB      145             0.0000000000
     16854       145  OSM       C15S           -4.3767966609      -24.2980338105       -4.0204618230  MEMB      145             0.0000000000
     16855       145  OSM       H15S           -4.5079391182      -23.6729051470       -4.9294918710  MEMB      145             0.0000000000
     16856       145  OSM       H15T           -3.2793592811      -24.4633125627       -3.9691288036  MEMB      145             0.0000000000
     16857       145  OSM       C16S           -4.7957349224      -23.5129205674       -2.7273340027  MEMB      145             0.0000000000
     16858       145  OSM       H16S           -5.8656652807      -23.2529910288       -2.8756803156  MEMB      145             0.0000000000
     16859       145  OSM       H16T           -4.2612928053      -22.5469994587       -2.6020816329  MEMB      145             0.0000000000
     16860       145  OSM       C17S           -4.5181264872      -24.0275715930       -1.3007062692  MEMB      145             0.0000000000
     16861       145  OSM       H17S           -4.8593197824      -25.0738387312       -1.1482823557  MEMB      145             0.0000000000
     16862       145  OSM       H17T           -5.0612142894      -23.4524895928       -0.5205417853  MEMB      145             0.0000000000
     16863       145  OSM       C18S           -3.0575530625      -23.8947011661       -0.8072218060  MEMB      145             0.0000000000
     16864       145  OSM       H18S           -2.4853525858      -24.6418969245       -1.3976503154  MEMB      145             0.0000000000
     16865       145  OSM       H18T           -2.9080796916      -24.1295587983        0.2683340529  MEMB      145             0.0000000000
     16866       145  OSM       H18U           -2.5918267006      -22.8967977421       -0.9542183941  MEMB      145             0.0000000000
     16867       145  OSM       C1F            -4.3838819227      -30.2147478170      -17.1156056746  MEMB      145             0.0000000000
     16868       145  OSM       OF             -4.7077816840      -31.2860637911      -17.6316829850  MEMB      145             0.0000000000
     16869       145  OSM       C2F            -5.4554293541      -29.3384153617      -16.5281658856  MEMB      145             0.0000000000
     16870       145  OSM       H2F            -5.3400466786      -28.2551525798      -16.7462243495  MEMB      145             0.0000000000
     16871       145  OSM       H2G            -5.2013078350      -29.4252401115      -15.4501094566  MEMB      145             0.0000000000
     16872       145  OSM       C3F            -6.9067723527      -29.9219029296      -16.7478202388  MEMB      145             0.0000000000
     16873       145  OSM       H3F            -6.7648057574      -30.9495102961      -16.3500899241  MEMB      145             0.0000000000
     16874       145  OSM       H3G            -7.0803088379      -29.8292219479      -17.8412625949  MEMB      145             0.0000000000
     16875       145  OSM       C4F            -7.8784124942      -29.0876649030      -15.9215666449  MEMB      145             0.0000000000
     16876       145  OSM       H4F            -8.8869408914      -29.5520938688      -15.8828781054  MEMB      145             0.0000000000
     16877       145  OSM       H4G            -8.0013896105      -28.1094049060      -16.4336265360  MEMB      145             0.0000000000
     16878       145  OSM       C5F            -7.4209521936      -28.6805332196      -14.5140715108  MEMB      145             0.0000000000
     16879       145  OSM       H5F            -8.1083388764      -27.9182150027      -14.0889929269  MEMB      145             0.0000000000
     16880       145  OSM       H5G            -6.5404575838      -28.0041540669      -14.5535899436  MEMB      145             0.0000000000
     16881       145  OSM       C6F            -7.1993983439      -29.8135709527      -13.4767433077  MEMB      145             0.0000000000
     16882       145  OSM       H6F            -6.1853847147      -30.2376500342      -13.6387751608  MEMB      145             0.0000000000
     16883       145  OSM       H6G            -8.0109646494      -30.5704295386      -13.4233956624  MEMB      145             0.0000000000
     16884       145  OSM       C7F            -7.2371296334      -29.1430393194      -12.0768799304  MEMB      145             0.0000000000
     16885       145  OSM       H7F            -8.2957607376      -29.0302997947      -11.7592143998  MEMB      145             0.0000000000
     16886       145  OSM       H7G            -6.8419314494      -28.1130739322      -12.2084502506  MEMB      145             0.0000000000
     16887       145  OSM       C8F            -6.4122527247      -29.8970023826      -10.9713709391  MEMB      145             0.0000000000
     16888       145  OSM       H8F            -6.7387472970      -29.5598248252       -9.9643790954  MEMB      145             0.0000000000
     16889       145  OSM       H8G            -5.3303038847      -29.6860824916      -11.1100093753  MEMB      145             0.0000000000
     16890       145  OSM       C9F            -6.6395606908      -31.3785653035      -10.8851287782  MEMB      145             0.0000000000
     16891       145  OSM       H9F            -7.7053426021      -31.6092938397      -11.0296044988  MEMB      145             0.0000000000
     16892       145  OSM       C10F           -5.6696555748      -32.3430357418      -10.8918040322  MEMB      145             0.0000000000
     16893       145  OSM       H10F           -5.9037307076      -33.4174829781      -10.8640195904  MEMB      145             0.0000000000
     16894       145  OSM       C11F           -4.1425313427      -32.1581883797      -10.9366986005  MEMB      145             0.0000000000
     16895       145  OSM       H11F           -3.8519883707      -31.1758134409      -11.3666350010  MEMB      145             0.0000000000
     16896       145  OSM       H11G           -3.7367873457      -32.8454953274      -11.7095515255  MEMB      145             0.0000000000
     16897       145  OSM       C12F           -3.3244594272      -32.5653383112       -9.5889359242  MEMB      145             0.0000000000
     16898       145  OSM       H12F           -2.2469881918      -32.4704755131       -9.8426651204  MEMB      145             0.0000000000
     16899       145  OSM       H12G           -3.6474580681      -33.5425196352       -9.1704756194  MEMB      145             0.0000000000
     16900       145  OSM       C13F           -3.5896677014      -31.5555017251       -8.4413528547  MEMB      145             0.0000000000
     16901       145  OSM       H13F           -4.6928408525      -31.4305531356       -8.3999029136  MEMB      145             0.0000000000
     16902       145  OSM       H13G           -3.1934851290      -30.5445166160       -8.6764467903  MEMB      145             0.0000000000
     16903       145  OSM       C14F           -3.0472044856      -31.9177844181       -7.0199172751  MEMB      145             0.0000000000
     16904       145  OSM       H14F           -2.0186217428      -32.2740690825       -7.2421768986  MEMB      145             0.0000000000
     16905       145  OSM       H14G           -3.5608133723      -32.8578393822       -6.7252586328  MEMB      145             0.0000000000
     16906       145  OSM       C15F           -3.1022895301      -30.9332601695       -5.8674840277  MEMB      145             0.0000000000
     16907       145  OSM       H15F           -4.1882553503      -30.6987422798       -5.8681815024  MEMB      145             0.0000000000
     16908       145  OSM       H15G           -2.7149404633      -29.9162362747       -6.0909654406  MEMB      145             0.0000000000
     16909       145  OSM       C16F           -2.5758269148      -31.5321345467       -4.5915239898  MEMB      145             0.0000000000
     16910       145  OSM       H16F           -1.4754914135      -31.5123942613       -4.4392317007  MEMB      145             0.0000000000
     16911       145  OSM       H16G           -2.8723944781      -32.6027084006       -4.6070291072  MEMB      145             0.0000000000
     16912       145  OSM       C17F           -3.2648150709      -31.0274456159       -3.1916514921  MEMB      145             0.0000000000
     16913       145  OSM       H17F           -4.3429312964      -31.1542273901       -3.4281109395  MEMB      145             0.0000000000
     16914       145  OSM       H17G           -3.0987420702      -29.9316128422       -3.1148960489  MEMB      145             0.0000000000
     16915       145  OSM       C18F           -2.8118893527      -31.7892588916       -1.9269992845  MEMB      145             0.0000000000
     16916       145  OSM       H18F           -1.7206564030      -31.7833759207       -1.7184394475  MEMB      145             0.0000000000
     16917       145  OSM       H18G           -3.1824053376      -32.8352299199       -1.9816150670  MEMB      145             0.0000000000
     16918       145  OSM       H18H           -3.0919254604      -31.3172790552       -0.9610082814  MEMB      145             0.0000000000
     16919       146  SAPE      N             -25.2553179234       17.1609586913      -22.7727570267  MEMB      146             0.0000000000
     16920       146  SAPE      HN1           -24.8705660488       16.3041946296      -22.3260788914  MEMB      146             0.0000000000
     16921       146  SAPE      HN2           -26.2836713750       17.2784279946      -22.6713158352  MEMB      146             0.0000000000
     16922       146  SAPE      HN3           -24.8950321159       17.2870571785      -23.7401727086  MEMB      146             0.0000000000
     16923       146  SAPE      C12           -24.6259783626       18.2023733643      -21.9317636180  MEMB      146             0.0000000000
     16924       146  SAPE      H12A          -25.0188277848       19.1843659618      -22.2718824992  MEMB      146             0.0000000000
     16925       146  SAPE      H12B          -23.5507064156       18.2901830674      -22.1970949815  MEMB      146             0.0000000000
     16926       146  SAPE      C11           -24.7210208207       17.8530752950      -20.3937858455  MEMB      146             0.0000000000
     16927       146  SAPE      H11A          -25.7835083155       18.0238058822      -20.1175750164  MEMB      146             0.0000000000
     16928       146  SAPE      H11B          -24.2175859602       18.5960076474      -19.7388615136  MEMB      146             0.0000000000
     16929       146  SAPE      P             -23.6342358294       15.8222611378      -19.0267732578  MEMB      146             0.0000000000
     16930       146  SAPE      O13           -24.1677847519       14.4865243210      -18.7053434686  MEMB      146             0.0000000000
     16931       146  SAPE      O14           -22.2424583752       16.0157340015      -19.2990671694  MEMB      146             0.0000000000
     16932       146  SAPE      O12           -24.5738507673       16.4888130214      -20.0868404075  MEMB      146             0.0000000000
     16933       146  SAPE      O11           -23.9181971704       16.7586393838      -17.7836692064  MEMB      146             0.0000000000
     16934       146  SAPE      C1            -25.2271849174       17.1143228239      -17.3834944463  MEMB      146             0.0000000000
     16935       146  SAPE      HA            -25.4629176579       18.1821982978      -17.5794355230  MEMB      146             0.0000000000
     16936       146  SAPE      HB            -26.0440010701       16.5619913062      -17.8954146055  MEMB      146             0.0000000000
     16937       146  SAPE      C2            -25.2804982869       16.9929063035      -15.8296199696  MEMB      146             0.0000000000
     16938       146  SAPE      HS            -24.2814820680       17.3266979870      -15.4762494420  MEMB      146             0.0000000000
     16939       146  SAPE      O21           -25.4497914836       15.6007920785      -15.5572256754  MEMB      146             0.0000000000
     16940       146  SAPE      C21           -24.7537088293       15.1448606121      -14.4646662328  MEMB      146             0.0000000000
     16941       146  SAPE      O22           -24.1629920559       15.8031415321      -13.6671897511  MEMB      146             0.0000000000
     16942       146  SAPE      C22           -24.7947456793       13.6002860427      -14.4424905494  MEMB      146             0.0000000000
     16943       146  SAPE      H2R           -25.7245491954       13.2498291125      -13.9455336601  MEMB      146             0.0000000000
     16944       146  SAPE      H2S           -24.9073609485       13.1869587352      -15.4675753128  MEMB      146             0.0000000000
     16945       146  SAPE      C3            -26.5009563081       17.8060523496      -15.2719461322  MEMB      146             0.0000000000
     16946       146  SAPE      HX            -27.3425124581       17.7011449648      -15.9896500093  MEMB      146             0.0000000000
     16947       146  SAPE      HY            -26.2956998575       18.8831953608      -15.4507022856  MEMB      146             0.0000000000
     16948       146  SAPE      O31           -26.7832790069       17.5225082639      -13.9136107015  MEMB      146             0.0000000000
     16949       146  SAPE      C31           -28.0253967707       17.1595936692      -13.6974604116  MEMB      146             0.0000000000
     16950       146  SAPE      O32           -28.9194239580       17.1025357214      -14.5335427298  MEMB      146             0.0000000000
     16951       146  SAPE      C32           -28.2010725593       16.7615320408      -12.2211165213  MEMB      146             0.0000000000
     16952       146  SAPE      H2X           -27.8249075334       15.7161589496      -12.2171041568  MEMB      146             0.0000000000
     16953       146  SAPE      H2Y           -29.2599954929       16.9441976082      -11.9389171973  MEMB      146             0.0000000000
     16954       146  SAPE      C23           -23.6638120662       13.0117248565      -13.5713066999  MEMB      146             0.0000000000
     16955       146  SAPE      H3R           -22.7234620314       13.5913870837      -13.6898571244  MEMB      146             0.0000000000
     16956       146  SAPE      H3S           -23.5114666859       12.0334087421      -14.0753001504  MEMB      146             0.0000000000
     16957       146  SAPE      C24           -23.9780007223       12.6502052779      -12.1944218560  MEMB      146             0.0000000000
     16958       146  SAPE      H4R           -23.1311958113       12.0276387353      -11.8343473524  MEMB      146             0.0000000000
     16959       146  SAPE      H4S           -24.8289087469       11.9362705702      -12.2183673457  MEMB      146             0.0000000000
     16960       146  SAPE      C25           -24.1802863148       13.8091472243      -11.2220129054  MEMB      146             0.0000000000
     16961       146  SAPE      H5R           -25.0928776347       14.3631366941      -11.4871023132  MEMB      146             0.0000000000
     16962       146  SAPE      C26           -23.4082243502       14.1096304103      -10.1909091010  MEMB      146             0.0000000000
     16963       146  SAPE      H6R           -23.6276520500       15.0786657239       -9.7188686823  MEMB      146             0.0000000000
     16964       146  SAPE      C27           -22.0832421924       13.3613194452       -9.7270473590  MEMB      146             0.0000000000
     16965       146  SAPE      H7R           -22.2409001540       12.2738428073       -9.8909350911  MEMB      146             0.0000000000
     16966       146  SAPE      H7S           -21.8536875042       13.5453951402       -8.6557204598  MEMB      146             0.0000000000
     16967       146  SAPE      C28           -20.8018018587       13.6851535031      -10.4399913841  MEMB      146             0.0000000000
     16968       146  SAPE      H8R           -20.6747289512       13.0965495525      -11.3605333735  MEMB      146             0.0000000000
     16969       146  SAPE      C29           -19.7903896371       14.5141191259      -10.0012414039  MEMB      146             0.0000000000
     16970       146  SAPE      H9R           -18.9382820528       14.6175173815      -10.6891527651  MEMB      146             0.0000000000
     16971       146  SAPE      C210          -19.7077733798       15.2454487742       -8.7236261580  MEMB      146             0.0000000000
     16972       146  SAPE      H10R          -18.6607843977       15.3899481316       -8.3812009215  MEMB      146             0.0000000000
     16973       146  SAPE      H10S          -20.0857411414       14.5976410738       -7.9039879659  MEMB      146             0.0000000000
     16974       146  SAPE      C211          -20.4023669839       16.5905851013       -8.7697342801  MEMB      146             0.0000000000
     16975       146  SAPE      H11R          -20.0113213023       17.1900885934       -9.6050058864  MEMB      146             0.0000000000
     16976       146  SAPE      C212          -21.4380465203       17.0490425739       -8.0247906977  MEMB      146             0.0000000000
     16977       146  SAPE      H12R          -21.7875462076       18.0853300038       -8.1429363695  MEMB      146             0.0000000000
     16978       146  SAPE      C213          -22.1046467816       16.2276863541       -7.0083808478  MEMB      146             0.0000000000
     16979       146  SAPE      H13R          -21.8087235384       15.1590077629       -7.0767679532  MEMB      146             0.0000000000
     16980       146  SAPE      H13S          -23.1782958624       16.1988740450       -7.2925790957  MEMB      146             0.0000000000
     16981       146  SAPE      C214          -22.0123015420       16.6912427980       -5.5367499892  MEMB      146             0.0000000000
     16982       146  SAPE      H14R          -21.3153643421       16.1082267975       -4.9167728027  MEMB      146             0.0000000000
     16983       146  SAPE      C215          -22.8049608761       17.5503117157       -4.8354314153  MEMB      146             0.0000000000
     16984       146  SAPE      H15R          -22.5743649879       17.7065001444       -3.7712740519  MEMB      146             0.0000000000
     16985       146  SAPE      C216          -24.0543692617       18.2017886193       -5.3507512171  MEMB      146             0.0000000000
     16986       146  SAPE      H16R          -24.3384963657       17.7389708762       -6.3199738143  MEMB      146             0.0000000000
     16987       146  SAPE      H16S          -23.9652594454       19.2955518242       -5.5241366478  MEMB      146             0.0000000000
     16988       146  SAPE      C217          -25.2952549092       17.9610187683       -4.5764588595  MEMB      146             0.0000000000
     16989       146  SAPE      H17R          -25.4664179145       16.8882486274       -4.3436746372  MEMB      146             0.0000000000
     16990       146  SAPE      H17S          -26.1062076399       18.1825800372       -5.3028102342  MEMB      146             0.0000000000
     16991       146  SAPE      C218          -25.4491442666       18.7674013636       -3.3030939828  MEMB      146             0.0000000000
     16992       146  SAPE      H18R          -24.8944229909       18.4605546099       -2.3907071989  MEMB      146             0.0000000000
     16993       146  SAPE      H18S          -26.5228790237       18.6966666107       -3.0266673225  MEMB      146             0.0000000000
     16994       146  SAPE      C219          -25.0456745127       20.1779405501       -3.4493663178  MEMB      146             0.0000000000
     16995       146  SAPE      H19R          -25.5006876243       20.4792446969       -4.4170955986  MEMB      146             0.0000000000
     16996       146  SAPE      H19S          -23.9370973077       20.1124277231       -3.4823169858  MEMB      146             0.0000000000
     16997       146  SAPE      C220          -25.5742961533       21.1451931697       -2.4210250989  MEMB      146             0.0000000000
     16998       146  SAPE      H20R          -25.2999284805       20.9289275703       -1.3663821089  MEMB      146             0.0000000000
     16999       146  SAPE      H20S          -26.6759179399       21.0139221988       -2.4803391694  MEMB      146             0.0000000000
     17000       146  SAPE      H20T          -25.2481897734       22.1936597497       -2.5904166693  MEMB      146             0.0000000000
     17001       146  SAPE      C33           -27.2096076196       17.5222638498      -11.3251365400  MEMB      146             0.0000000000
     17002       146  SAPE      H3X           -27.3904996877       18.6168091140      -11.3848850679  MEMB      146             0.0000000000
     17003       146  SAPE      H3Y           -26.2281977577       17.1536270731      -11.6929167766  MEMB      146             0.0000000000
     17004       146  SAPE      C34           -27.3986923696       17.2152523722       -9.8446863743  MEMB      146             0.0000000000
     17005       146  SAPE      H4X           -28.4982722482       17.2629761434       -9.6931351141  MEMB      146             0.0000000000
     17006       146  SAPE      H4Y           -26.8695459442       17.9328570600       -9.1818376613  MEMB      146             0.0000000000
     17007       146  SAPE      C35           -26.8883411382       15.8129657182       -9.4562309436  MEMB      146             0.0000000000
     17008       146  SAPE      H5X           -26.5433048517       15.8794347815       -8.4022612934  MEMB      146             0.0000000000
     17009       146  SAPE      H5Y           -26.0827219784       15.4598637102      -10.1349191370  MEMB      146             0.0000000000
     17010       146  SAPE      C36           -27.9236709580       14.6983578365       -9.4400985656  MEMB      146             0.0000000000
     17011       146  SAPE      H6X           -28.3135166204       14.6450867869      -10.4790909896  MEMB      146             0.0000000000
     17012       146  SAPE      H6Y           -28.8497055282       14.9280975303       -8.8708882395  MEMB      146             0.0000000000
     17013       146  SAPE      C37           -27.3199525298       13.3426933408       -8.9953819248  MEMB      146             0.0000000000
     17014       146  SAPE      H7X           -26.5024424709       13.0528165017       -9.6896218258  MEMB      146             0.0000000000
     17015       146  SAPE      H7Y           -28.1044362606       12.5559985280       -8.9995509591  MEMB      146             0.0000000000
     17016       146  SAPE      C38           -26.7196083020       13.4652925785       -7.6182975363  MEMB      146             0.0000000000
     17017       146  SAPE      H8X           -27.3604476031       13.8303388790       -6.7874015204  MEMB      146             0.0000000000
     17018       146  SAPE      H8Y           -25.7784340830       14.0477730166       -7.7143605536  MEMB      146             0.0000000000
     17019       146  SAPE      C39           -26.3296274704       12.1087214423       -7.1683403203  MEMB      146             0.0000000000
     17020       146  SAPE      H9X           -26.1354960642       11.5892181704       -8.1310189279  MEMB      146             0.0000000000
     17021       146  SAPE      H9Y           -27.2625951634       11.5888459172       -6.8623638615  MEMB      146             0.0000000000
     17022       146  SAPE      C310          -25.1787448116       11.7415825539       -6.2720853840  MEMB      146             0.0000000000
     17023       146  SAPE      H10X          -24.3802453943       12.4184203143       -6.6443888724  MEMB      146             0.0000000000
     17024       146  SAPE      H10Y          -24.9239696921       10.6766100601       -6.4598202201  MEMB      146             0.0000000000
     17025       146  SAPE      C311          -25.5219760119       11.9138254500       -4.8065480459  MEMB      146             0.0000000000
     17026       146  SAPE      H11X          -24.7363157738       11.7168936311       -4.0461028585  MEMB      146             0.0000000000
     17027       146  SAPE      H11Y          -26.3811614903       11.2360160894       -4.6149874596  MEMB      146             0.0000000000
     17028       146  SAPE      C312          -25.9946103056       13.3378652816       -4.4439739690  MEMB      146             0.0000000000
     17029       146  SAPE      H12X          -27.0766875591       13.4077889478       -4.6859255407  MEMB      146             0.0000000000
     17030       146  SAPE      H12Y          -25.3613418388       14.0931064904       -4.9567138261  MEMB      146             0.0000000000
     17031       146  SAPE      C313          -25.8887533060       13.6632571702       -2.9427313444  MEMB      146             0.0000000000
     17032       146  SAPE      H13X          -24.8437779202       13.7033050398       -2.5675730306  MEMB      146             0.0000000000
     17033       146  SAPE      H13Y          -26.4037265351       12.8032596650       -2.4636407388  MEMB      146             0.0000000000
     17034       146  SAPE      C314          -26.6405034294       14.8856290220       -2.4329153823  MEMB      146             0.0000000000
     17035       146  SAPE      H14X          -27.6172354254       14.7924778336       -2.9541039249  MEMB      146             0.0000000000
     17036       146  SAPE      H14Y          -26.1245280397       15.8155782874       -2.7542945117  MEMB      146             0.0000000000
     17037       146  SAPE      C315          -26.9402679361       14.9308458921       -0.9458975057  MEMB      146             0.0000000000
     17038       146  SAPE      H15X          -25.9896948083       14.7108689225       -0.4145389510  MEMB      146             0.0000000000
     17039       146  SAPE      H15Y          -27.4971268607       14.0348679243       -0.5973955118  MEMB      146             0.0000000000
     17040       146  SAPE      C316          -27.7247732870       16.1661718414       -0.3045832832  MEMB      146             0.0000000000
     17041       146  SAPE      H16X          -28.7592338479       16.0159468033       -0.6809411260  MEMB      146             0.0000000000
     17042       146  SAPE      H16Y          -27.3088563353       17.0704011861       -0.7982468016  MEMB      146             0.0000000000
     17043       146  SAPE      C317          -27.7151159340       16.3262555207        1.1788991010  MEMB      146             0.0000000000
     17044       146  SAPE      H17X          -28.3560813585       17.1917108518        1.4517940369  MEMB      146             0.0000000000
     17045       146  SAPE      H17Y          -26.7017073021       16.5671656876        1.5652753849  MEMB      146             0.0000000000
     17046       146  SAPE      C318          -28.3524938184       15.0558462399        1.8264139911  MEMB      146             0.0000000000
     17047       146  SAPE      H18X          -28.8479601889       15.3048580201        2.7891340000  MEMB      146             0.0000000000
     17048       146  SAPE      H18Y          -27.5212405221       14.3273745785        1.9389677337  MEMB      146             0.0000000000
     17049       146  SAPE      H18Z          -29.0886581232       14.6663808562        1.0910917129  MEMB      146             0.0000000000
     17050       147  SAPE      N              -5.9729476739       29.1061088727      -17.6057291069  MEMB      147             0.0000000000
     17051       147  SAPE      HN1            -5.1344371900       28.7986258770      -18.1386028322  MEMB      147             0.0000000000
     17052       147  SAPE      HN2            -5.7580274372       29.4356240284      -16.6430096769  MEMB      147             0.0000000000
     17053       147  SAPE      HN3            -6.6253266439       28.2969199379      -17.5708732292  MEMB      147             0.0000000000
     17054       147  SAPE      C12            -6.7295107936       30.1823387709      -18.4825302747  MEMB      147             0.0000000000
     17055       147  SAPE      H12A           -5.9488520850       30.9528480928      -18.6591889476  MEMB      147             0.0000000000
     17056       147  SAPE      H12B           -7.4979717273       30.6044272862      -17.8001594423  MEMB      147             0.0000000000
     17057       147  SAPE      C11            -7.4901857465       29.6891129096      -19.7341652973  MEMB      147             0.0000000000
     17058       147  SAPE      H11A           -7.7919244571       30.6624561429      -20.1767459597  MEMB      147             0.0000000000
     17059       147  SAPE      H11B           -8.4532092048       29.1686180311      -19.5444497636  MEMB      147             0.0000000000
     17060       147  SAPE      P              -6.4435378660       27.4061790154      -20.8905577013  MEMB      147             0.0000000000
     17061       147  SAPE      O13            -7.4578084565       27.0357984260      -21.9413111203  MEMB      147             0.0000000000
     17062       147  SAPE      O14            -4.9784605948       27.1390372822      -21.1212794593  MEMB      147             0.0000000000
     17063       147  SAPE      O12            -6.6553690749       28.9918941607      -20.6843866575  MEMB      147             0.0000000000
     17064       147  SAPE      O11            -6.9926592649       26.7337033249      -19.5400403654  MEMB      147             0.0000000000
     17065       147  SAPE      C1             -7.6148081662       25.4493230525      -19.6658712878  MEMB      147             0.0000000000
     17066       147  SAPE      HA             -8.5345035039       25.6055495552      -20.2692573284  MEMB      147             0.0000000000
     17067       147  SAPE      HB             -7.0043683487       24.6958715748      -20.2080843838  MEMB      147             0.0000000000
     17068       147  SAPE      C2             -7.9155338113       24.9197615348      -18.2226959902  MEMB      147             0.0000000000
     17069       147  SAPE      HS             -8.6024970965       24.0507790099      -18.3079719622  MEMB      147             0.0000000000
     17070       147  SAPE      O21            -8.5872559753       25.9105994762      -17.3539889062  MEMB      147             0.0000000000
     17071       147  SAPE      C21            -9.7604208498       26.3954407296      -17.8113652394  MEMB      147             0.0000000000
     17072       147  SAPE      O22           -10.4990307273       25.8045293802      -18.5793684025  MEMB      147             0.0000000000
     17073       147  SAPE      C22           -10.0012665580       27.7506363336      -17.1775089676  MEMB      147             0.0000000000
     17074       147  SAPE      H2R            -9.1190912780       28.3473336851      -17.4938001098  MEMB      147             0.0000000000
     17075       147  SAPE      H2S           -10.9694462872       28.1008418476      -17.5950075223  MEMB      147             0.0000000000
     17076       147  SAPE      C3             -6.6074758656       24.3759289003      -17.5084480085  MEMB      147             0.0000000000
     17077       147  SAPE      HX             -6.1736458896       23.6193027930      -18.1966554275  MEMB      147             0.0000000000
     17078       147  SAPE      HY             -6.8204617589       23.9256996532      -16.5153459735  MEMB      147             0.0000000000
     17079       147  SAPE      O31            -5.6188174265       25.4016809070      -17.3827703303  MEMB      147             0.0000000000
     17080       147  SAPE      C31            -4.6042525467       25.1077973885      -16.5278540978  MEMB      147             0.0000000000
     17081       147  SAPE      O32            -4.3694837874       23.9643534583      -16.1469592948  MEMB      147             0.0000000000
     17082       147  SAPE      C32            -3.7690092824       26.2522450463      -15.9644855678  MEMB      147             0.0000000000
     17083       147  SAPE      H2X            -4.1880080145       27.2365651459      -16.2642775565  MEMB      147             0.0000000000
     17084       147  SAPE      H2Y            -2.7319184828       26.0814886628      -16.3244929291  MEMB      147             0.0000000000
     17085       147  SAPE      C23           -10.3154398105       27.4279539362      -15.6938703872  MEMB      147             0.0000000000
     17086       147  SAPE      H3R            -9.5994172326       26.8627418409      -15.0597033878  MEMB      147             0.0000000000
     17087       147  SAPE      H3S           -11.3468150193       27.0277034828      -15.5919598782  MEMB      147             0.0000000000
     17088       147  SAPE      C24           -10.5092285951       28.7265317213      -14.7747819973  MEMB      147             0.0000000000
     17089       147  SAPE      H4R           -10.9510104062       28.1987097149      -13.9026846600  MEMB      147             0.0000000000
     17090       147  SAPE      H4S           -11.3157179505       29.3049338703      -15.2741282302  MEMB      147             0.0000000000
     17091       147  SAPE      C25            -9.2930039008       29.5549881132      -14.4754944279  MEMB      147             0.0000000000
     17092       147  SAPE      H5R            -8.8019794523       29.6730125172      -15.4527172240  MEMB      147             0.0000000000
     17093       147  SAPE      C26            -8.7448962191       30.1289982009      -13.3266067867  MEMB      147             0.0000000000
     17094       147  SAPE      H6R            -7.8104768304       30.7014756015      -13.2310554021  MEMB      147             0.0000000000
     17095       147  SAPE      C27            -9.3811486845       30.0363352370      -11.9338382385  MEMB      147             0.0000000000
     17096       147  SAPE      H7R           -10.4762534035       30.1537074553      -12.0797491194  MEMB      147             0.0000000000
     17097       147  SAPE      H7S            -9.0848111199       30.9209267206      -11.3305113295  MEMB      147             0.0000000000
     17098       147  SAPE      C28            -9.0667814524       28.7921261129      -11.2179052295  MEMB      147             0.0000000000
     17099       147  SAPE      H8R            -9.2775802877       27.8767739471      -11.7903506651  MEMB      147             0.0000000000
     17100       147  SAPE      C29            -8.4652098799       28.7178731403       -9.9856285153  MEMB      147             0.0000000000
     17101       147  SAPE      H9R            -8.2952244781       27.6985043831       -9.6088097609  MEMB      147             0.0000000000
     17102       147  SAPE      C210           -7.9757567028       29.8655618888       -9.1446541454  MEMB      147             0.0000000000
     17103       147  SAPE      H10R           -7.2985785233       30.5577553427       -9.6892806559  MEMB      147             0.0000000000
     17104       147  SAPE      H10S           -7.3650224836       29.4366207619       -8.3216510538  MEMB      147             0.0000000000
     17105       147  SAPE      C211           -9.0582036803       30.7157907177       -8.6883185958  MEMB      147             0.0000000000
     17106       147  SAPE      H11R           -9.1610590009       31.7022230344       -9.1641041055  MEMB      147             0.0000000000
     17107       147  SAPE      C212           -9.8461354331       30.4450713423       -7.6074043857  MEMB      147             0.0000000000
     17108       147  SAPE      H12R          -10.5974305349       31.1864064035       -7.2976010431  MEMB      147             0.0000000000
     17109       147  SAPE      C213           -9.7003113520       29.2283624255       -6.7251673511  MEMB      147             0.0000000000
     17110       147  SAPE      H13R           -9.1627229733       29.3810866514       -5.7649617558  MEMB      147             0.0000000000
     17111       147  SAPE      H13S           -9.1040744397       28.4508684861       -7.2489294815  MEMB      147             0.0000000000
     17112       147  SAPE      C214          -11.0325280934       28.6064830357       -6.4257422158  MEMB      147             0.0000000000
     17113       147  SAPE      H14R          -11.8024792801       29.0623640019       -7.0655455958  MEMB      147             0.0000000000
     17114       147  SAPE      C215          -11.2756837624       27.6003982476       -5.5986756512  MEMB      147             0.0000000000
     17115       147  SAPE      H15R          -12.3173193519       27.3840817604       -5.3190285761  MEMB      147             0.0000000000
     17116       147  SAPE      C216          -10.1318198616       26.9582448849       -4.8360586369  MEMB      147             0.0000000000
     17117       147  SAPE      H16R           -9.0877253077       27.1989677094       -5.1297241226  MEMB      147             0.0000000000
     17118       147  SAPE      H16S          -10.4008948277       25.8890011062       -4.9725772700  MEMB      147             0.0000000000
     17119       147  SAPE      C217          -10.3203180108       27.2103629488       -3.2902436859  MEMB      147             0.0000000000
     17120       147  SAPE      H17R           -9.6446872914       26.5930315481       -2.6603669244  MEMB      147             0.0000000000
     17121       147  SAPE      H17S          -11.3506339675       27.0931483536       -2.8914569010  MEMB      147             0.0000000000
     17122       147  SAPE      C218           -9.7800160741       28.6390527616       -2.9155913549  MEMB      147             0.0000000000
     17123       147  SAPE      H18R          -10.3421975864       29.4929147277       -3.3505553821  MEMB      147             0.0000000000
     17124       147  SAPE      H18S           -8.7724525572       28.6834036296       -3.3816064712  MEMB      147             0.0000000000
     17125       147  SAPE      C219           -9.7957979346       28.8457466112       -1.3401647947  MEMB      147             0.0000000000
     17126       147  SAPE      H19R           -9.3086882271       28.0026317852       -0.8051861678  MEMB      147             0.0000000000
     17127       147  SAPE      H19S          -10.8494949876       29.0312214860       -1.0407634181  MEMB      147             0.0000000000
     17128       147  SAPE      C220           -8.9545271194       30.0552874299       -0.9781594563  MEMB      147             0.0000000000
     17129       147  SAPE      H20R           -7.8682120973       29.8723499943       -1.1222918437  MEMB      147             0.0000000000
     17130       147  SAPE      H20S           -9.2277871095       30.3915511803        0.0448651791  MEMB      147             0.0000000000
     17131       147  SAPE      H20T           -9.2474093249       30.8634487686       -1.6820178660  MEMB      147             0.0000000000
     17132       147  SAPE      C33            -3.7934349462       26.0757698264      -14.4503275582  MEMB      147             0.0000000000
     17133       147  SAPE      H3X            -3.0181389709       26.8236164551      -14.1783669403  MEMB      147             0.0000000000
     17134       147  SAPE      H3Y            -3.4299931815       25.0798040564      -14.1182376877  MEMB      147             0.0000000000
     17135       147  SAPE      C34            -5.0853504585       26.6073363319      -13.7106590816  MEMB      147             0.0000000000
     17136       147  SAPE      H4X            -5.5027591719       27.5218560962      -14.1836753079  MEMB      147             0.0000000000
     17137       147  SAPE      H4Y            -4.7920108624       26.8409936969      -12.6648687558  MEMB      147             0.0000000000
     17138       147  SAPE      C35            -6.2746474345       25.6356565215      -13.7244955452  MEMB      147             0.0000000000
     17139       147  SAPE      H5X            -6.6912842396       25.6060799356      -14.7539904603  MEMB      147             0.0000000000
     17140       147  SAPE      H5Y            -7.0212738152       26.2487520923      -13.1758758194  MEMB      147             0.0000000000
     17141       147  SAPE      C36            -6.0500626111       24.2064024517      -13.1627069668  MEMB      147             0.0000000000
     17142       147  SAPE      H6X            -5.2987288714       23.7634041652      -13.8508723220  MEMB      147             0.0000000000
     17143       147  SAPE      H6Y            -6.8897468723       23.4813249362      -13.1034312559  MEMB      147             0.0000000000
     17144       147  SAPE      C37            -5.4165108931       24.3061847123      -11.6926286268  MEMB      147             0.0000000000
     17145       147  SAPE      H7X            -4.3622691207       24.6503611850      -11.7592483682  MEMB      147             0.0000000000
     17146       147  SAPE      H7Y            -5.3799403688       23.2399458946      -11.3825990122  MEMB      147             0.0000000000
     17147       147  SAPE      C38            -6.3384230005       24.9650521007      -10.6543715765  MEMB      147             0.0000000000
     17148       147  SAPE      H8X            -7.3582436078       24.5580731692      -10.8236501451  MEMB      147             0.0000000000
     17149       147  SAPE      H8Y            -6.2300257033       26.0600280961      -10.8079891227  MEMB      147             0.0000000000
     17150       147  SAPE      C39            -5.8277655027       24.6508365883       -9.2632699914  MEMB      147             0.0000000000
     17151       147  SAPE      H9X            -5.7890438827       23.5418359551       -9.2090549844  MEMB      147             0.0000000000
     17152       147  SAPE      H9Y            -6.5119834985       24.8832023144       -8.4193661252  MEMB      147             0.0000000000
     17153       147  SAPE      C310           -4.3935308428       25.1337612957       -8.9604302452  MEMB      147             0.0000000000
     17154       147  SAPE      H10X           -3.6463639287       24.7598630746       -9.6927289925  MEMB      147             0.0000000000
     17155       147  SAPE      H10Y           -4.1414711057       24.7758558355       -7.9393074043  MEMB      147             0.0000000000
     17156       147  SAPE      C311           -4.3526675829       26.7007068896       -8.9220992765  MEMB      147             0.0000000000
     17157       147  SAPE      H11X           -4.7103777328       27.1201564924       -9.8866856212  MEMB      147             0.0000000000
     17158       147  SAPE      H11Y           -3.3078263216       27.0603036938       -8.8066970114  MEMB      147             0.0000000000
     17159       147  SAPE      C312           -5.3451903370       27.2102497382       -7.8617958852  MEMB      147             0.0000000000
     17160       147  SAPE      H12X           -6.3741081547       26.7996839701       -7.9459656362  MEMB      147             0.0000000000
     17161       147  SAPE      H12Y           -5.5051121408       28.2875895856       -8.0810785361  MEMB      147             0.0000000000
     17162       147  SAPE      C313           -4.8458051055       27.2456022080       -6.4539034206  MEMB      147             0.0000000000
     17163       147  SAPE      H13X           -3.8768565082       27.7889687703       -6.4684720251  MEMB      147             0.0000000000
     17164       147  SAPE      H13Y           -4.6587873744       26.1892023168       -6.1651737098  MEMB      147             0.0000000000
     17165       147  SAPE      C314           -5.9022404044       27.7041867815       -5.4397080183  MEMB      147             0.0000000000
     17166       147  SAPE      H14X           -6.8151932555       27.0734746847       -5.4948474331  MEMB      147             0.0000000000
     17167       147  SAPE      H14Y           -6.1643865581       28.7565248688       -5.6809231004  MEMB      147             0.0000000000
     17168       147  SAPE      C315           -5.3571087915       27.7040092509       -4.0032331872  MEMB      147             0.0000000000
     17169       147  SAPE      H15X           -5.9318528957       28.4130985946       -3.3698443069  MEMB      147             0.0000000000
     17170       147  SAPE      H15Y           -4.3459137881       28.1626649456       -3.9652758925  MEMB      147             0.0000000000
     17171       147  SAPE      C316           -5.2724626282       26.4052422015       -3.2675247589  MEMB      147             0.0000000000
     17172       147  SAPE      H16X           -4.6811534418       25.7199237972       -3.9117403234  MEMB      147             0.0000000000
     17173       147  SAPE      H16Y           -6.3096731477       26.0564838275       -3.0754750125  MEMB      147             0.0000000000
     17174       147  SAPE      C317           -4.5943164309       26.2843821653       -1.8737047904  MEMB      147             0.0000000000
     17175       147  SAPE      H17X           -4.6977937801       25.2551518219       -1.4683676089  MEMB      147             0.0000000000
     17176       147  SAPE      H17Y           -5.0582455700       26.9315753825       -1.0989578206  MEMB      147             0.0000000000
     17177       147  SAPE      C318           -3.0946236153       26.5801564634       -1.8321079906  MEMB      147             0.0000000000
     17178       147  SAPE      H18X           -2.7696646288       27.6420703544       -1.7995290316  MEMB      147             0.0000000000
     17179       147  SAPE      H18Y           -2.6377993535       26.1563333182       -2.7518938784  MEMB      147             0.0000000000
     17180       147  SAPE      H18Z           -2.5954552455       25.9946212181       -1.0306711511  MEMB      147             0.0000000000
     17181       148  SOPE      N             -14.7551127417       26.7339663952      -24.0769306512  MEMB      148             0.0000000000
     17182       148  SOPE      HN1           -15.4713600594       26.1685868592      -23.5779960667  MEMB      148             0.0000000000
     17183       148  SOPE      HN2           -15.1631475863       27.6571295251      -24.3276842031  MEMB      148             0.0000000000
     17184       148  SOPE      HN3           -14.4286454227       26.3171932326      -24.9720947044  MEMB      148             0.0000000000
     17185       148  SOPE      C12           -13.5755922286       26.9338877754      -23.1570556074  MEMB      148             0.0000000000
     17186       148  SOPE      H12A          -13.0050133767       27.7471552572      -23.6544054117  MEMB      148             0.0000000000
     17187       148  SOPE      H12B          -13.0662896204       25.9511442064      -23.0614173390  MEMB      148             0.0000000000
     17188       148  SOPE      C11           -14.0954047394       27.4870957976      -21.8085629171  MEMB      148             0.0000000000
     17189       148  SOPE      H11A          -14.4427718823       28.5330303047      -21.9488417652  MEMB      148             0.0000000000
     17190       148  SOPE      H11B          -13.1629386799       27.4537426236      -21.2054746947  MEMB      148             0.0000000000
     17191       148  SOPE      P             -15.5143267065       26.5603068047      -19.7346678587  MEMB      148             0.0000000000
     17192       148  SOPE      O13           -16.3461771488       25.3509190918      -19.5965297446  MEMB      148             0.0000000000
     17193       148  SOPE      O14           -16.0661252763       27.8591305851      -19.2849512789  MEMB      148             0.0000000000
     17194       148  SOPE      O12           -15.1355522081       26.6334195138      -21.3036900768  MEMB      148             0.0000000000
     17195       148  SOPE      O11           -14.1324753534       26.3590124719      -19.0376118731  MEMB      148             0.0000000000
     17196       148  SOPE      C1            -13.2812860043       25.2704163523      -19.1037660905  MEMB      148             0.0000000000
     17197       148  SOPE      HA            -12.5971826326       25.4640222287      -19.9574874306  MEMB      148             0.0000000000
     17198       148  SOPE      HB            -13.8313895445       24.3287826359      -19.3159764435  MEMB      148             0.0000000000
     17199       148  SOPE      C2            -12.4782412022       25.0406903831      -17.7519990686  MEMB      148             0.0000000000
     17200       148  SOPE      HS            -11.9882472461       24.0473861027      -17.8390246173  MEMB      148             0.0000000000
     17201       148  SOPE      O21           -13.3539900416       25.0866417651      -16.6054752660  MEMB      148             0.0000000000
     17202       148  SOPE      C21           -14.0801448230       23.9727195374      -16.4162147497  MEMB      148             0.0000000000
     17203       148  SOPE      O22           -14.0469935691       22.9780471529      -17.0769375940  MEMB      148             0.0000000000
     17204       148  SOPE      C22           -15.0740049099       24.1242584246      -15.3105789296  MEMB      148             0.0000000000
     17205       148  SOPE      H2R           -16.0644416057       24.5420151437      -15.5913550083  MEMB      148             0.0000000000
     17206       148  SOPE      H2S           -14.6436832809       24.8369561947      -14.5749120020  MEMB      148             0.0000000000
     17207       148  SOPE      C3            -11.4706182157       26.1758375897      -17.5482187069  MEMB      148             0.0000000000
     17208       148  SOPE      HX            -10.6056161326       26.1291849115      -18.2438594748  MEMB      148             0.0000000000
     17209       148  SOPE      HY            -11.0748956997       25.9678302884      -16.5311359732  MEMB      148             0.0000000000
     17210       148  SOPE      O31           -12.0879770346       27.4452632037      -17.6624515911  MEMB      148             0.0000000000
     17211       148  SOPE      C31           -12.1797260771       28.2031919354      -16.6548740468  MEMB      148             0.0000000000
     17212       148  SOPE      O32           -11.7585696892       27.9488780468      -15.5301809779  MEMB      148             0.0000000000
     17213       148  SOPE      C32           -13.0768160322       29.4610714985      -16.9236364072  MEMB      148             0.0000000000
     17214       148  SOPE      H2X           -13.6584751761       29.4012958977      -17.8683164016  MEMB      148             0.0000000000
     17215       148  SOPE      H2Y           -12.3926314589       30.3363080800      -16.9104798201  MEMB      148             0.0000000000
     17216       148  SOPE      C23           -15.3602289330       22.8355179232      -14.6258947199  MEMB      148             0.0000000000
     17217       148  SOPE      H3R           -14.5250913253       22.2024682164      -14.2569585689  MEMB      148             0.0000000000
     17218       148  SOPE      H3S           -15.9921115393       22.1728556446      -15.2551196664  MEMB      148             0.0000000000
     17219       148  SOPE      C24           -16.2612877368       23.0606626130      -13.4149406086  MEMB      148             0.0000000000
     17220       148  SOPE      H4R           -17.0803412264       23.7822248453      -13.6218708565  MEMB      148             0.0000000000
     17221       148  SOPE      H4S           -16.6953500889       22.0699306514      -13.1612448708  MEMB      148             0.0000000000
     17222       148  SOPE      C25           -15.4864228863       23.6297979533      -12.1803211495  MEMB      148             0.0000000000
     17223       148  SOPE      H5R           -15.2873426182       24.7134536157      -12.3230754512  MEMB      148             0.0000000000
     17224       148  SOPE      H5S           -16.1194064039       23.5618565530      -11.2698067859  MEMB      148             0.0000000000
     17225       148  SOPE      C26           -14.1623228580       22.9910133285      -11.9308155761  MEMB      148             0.0000000000
     17226       148  SOPE      H6R           -14.1385849670       21.8835921143      -11.8449326856  MEMB      148             0.0000000000
     17227       148  SOPE      H6S           -13.4736396927       23.4137251645      -12.6932794872  MEMB      148             0.0000000000
     17228       148  SOPE      C27           -13.4881539029       23.5263660943      -10.6286677811  MEMB      148             0.0000000000
     17229       148  SOPE      H7R           -14.0489302480       23.0694129894       -9.7854331494  MEMB      148             0.0000000000
     17230       148  SOPE      H7S           -12.4905830784       23.0498955435      -10.5184447613  MEMB      148             0.0000000000
     17231       148  SOPE      C28           -13.3382628949       25.0246823974      -10.4413822340  MEMB      148             0.0000000000
     17232       148  SOPE      H8R           -12.9141568844       25.4935431497      -11.3549606829  MEMB      148             0.0000000000
     17233       148  SOPE      H8S           -14.3607847619       25.4410757225      -10.3173395658  MEMB      148             0.0000000000
     17234       148  SOPE      C29           -12.4361553056       25.4004073662       -9.3709076250  MEMB      148             0.0000000000
     17235       148  SOPE      H91           -11.3785439150       25.5238299208       -9.6469957290  MEMB      148             0.0000000000
     17236       148  SOPE      C210          -12.8752238056       25.6905046972       -8.1018193583  MEMB      148             0.0000000000
     17237       148  SOPE      H101          -12.0804316766       25.7587125820       -7.3444207064  MEMB      148             0.0000000000
     17238       148  SOPE      C211          -14.2894419021       25.6889609069       -7.5678597571  MEMB      148             0.0000000000
     17239       148  SOPE      H11R          -15.0559427589       26.0068880724       -8.3065877190  MEMB      148             0.0000000000
     17240       148  SOPE      H11S          -14.4524563300       26.2507422058       -6.6233228290  MEMB      148             0.0000000000
     17241       148  SOPE      C212          -14.7709814624       24.1820473838       -7.0394950596  MEMB      148             0.0000000000
     17242       148  SOPE      H12R          -15.1276337077       23.5384516877       -7.8719043346  MEMB      148             0.0000000000
     17243       148  SOPE      H12S          -15.6353667393       24.3993169408       -6.3762057993  MEMB      148             0.0000000000
     17244       148  SOPE      C213          -13.7905038763       23.3563045107       -6.3001934536  MEMB      148             0.0000000000
     17245       148  SOPE      H13R          -12.7372384589       23.5143866427       -6.6163628540  MEMB      148             0.0000000000
     17246       148  SOPE      H13S          -13.9667565839       22.2776772651       -6.4997405565  MEMB      148             0.0000000000
     17247       148  SOPE      C214          -13.8552297594       23.5588899878       -4.8078165456  MEMB      148             0.0000000000
     17248       148  SOPE      H14R          -14.8725295063       23.6393079160       -4.3685496984  MEMB      148             0.0000000000
     17249       148  SOPE      H14S          -13.3892134041       24.5631520190       -4.7150400415  MEMB      148             0.0000000000
     17250       148  SOPE      C215          -13.2309615142       22.4460214523       -4.0475291803  MEMB      148             0.0000000000
     17251       148  SOPE      H15R          -12.1369010158       22.5360956657       -4.2185248951  MEMB      148             0.0000000000
     17252       148  SOPE      H15S          -13.5631760867       21.4609837958       -4.4395194132  MEMB      148             0.0000000000
     17253       148  SOPE      C216          -13.4846642414       22.4948194345       -2.5136903995  MEMB      148             0.0000000000
     17254       148  SOPE      H16R          -14.5805964941       22.6747749749       -2.5431770841  MEMB      148             0.0000000000
     17255       148  SOPE      H16S          -13.0379321180       23.3401423628       -1.9478450559  MEMB      148             0.0000000000
     17256       148  SOPE      C217          -13.0946262932       21.3247373605       -1.7579577889  MEMB      148             0.0000000000
     17257       148  SOPE      H17R          -11.9904733264       21.2919183049       -1.8766593153  MEMB      148             0.0000000000
     17258       148  SOPE      H17S          -13.5535353307       20.4135924902       -2.1978880067  MEMB      148             0.0000000000
     17259       148  SOPE      C218          -13.4910230048       21.2317585701       -0.3120104246  MEMB      148             0.0000000000
     17260       148  SOPE      H18R          -12.8319581482       20.6143054184        0.3350657793  MEMB      148             0.0000000000
     17261       148  SOPE      H18S          -14.3889635210       20.5858210804       -0.2081417589  MEMB      148             0.0000000000
     17262       148  SOPE      H18T          -13.7923777279       22.1717267025        0.1978589217  MEMB      148             0.0000000000
     17263       148  SOPE      C33           -14.0214106397       29.6609396721      -15.7390340453  MEMB      148             0.0000000000
     17264       148  SOPE      H3X           -14.5234855037       30.6293394618      -15.9498515452  MEMB      148             0.0000000000
     17265       148  SOPE      H3Y           -13.4762475185       29.6946403882      -14.7715723097  MEMB      148             0.0000000000
     17266       148  SOPE      C34           -15.1222483489       28.5946593925      -15.6439620813  MEMB      148             0.0000000000
     17267       148  SOPE      H4X           -15.0495214701       27.8396876394      -16.4557807552  MEMB      148             0.0000000000
     17268       148  SOPE      H4Y           -16.0935063011       29.0949261673      -15.8457340369  MEMB      148             0.0000000000
     17269       148  SOPE      C35           -15.1181939129       27.8717053570      -14.3174186727  MEMB      148             0.0000000000
     17270       148  SOPE      H5X           -14.1013516942       27.4957762330      -14.0744573825  MEMB      148             0.0000000000
     17271       148  SOPE      H5Y           -15.7060910690       26.9319169788      -14.3915518910  MEMB      148             0.0000000000
     17272       148  SOPE      C36           -15.6305483846       28.6544930022      -13.1115362479  MEMB      148             0.0000000000
     17273       148  SOPE      H6X           -16.3506903562       29.4163388126      -13.4793777668  MEMB      148             0.0000000000
     17274       148  SOPE      H6Y           -14.7236352840       29.1193979823      -12.6691638489  MEMB      148             0.0000000000
     17275       148  SOPE      C37           -16.2054163195       27.6119650547      -12.0534764873  MEMB      148             0.0000000000
     17276       148  SOPE      H7X           -16.1016169971       28.2666017290      -11.1618501134  MEMB      148             0.0000000000
     17277       148  SOPE      H7Y           -15.4896249654       26.7669635677      -11.9643906472  MEMB      148             0.0000000000
     17278       148  SOPE      C38           -17.5462418769       27.0901115349      -12.3819230287  MEMB      148             0.0000000000
     17279       148  SOPE      H8X           -17.3934393736       26.3976590783      -13.2371901484  MEMB      148             0.0000000000
     17280       148  SOPE      H8Y           -18.1878265582       27.9618540495      -12.6324328781  MEMB      148             0.0000000000
     17281       148  SOPE      C39           -18.0443876190       26.3205223893      -11.2307107342  MEMB      148             0.0000000000
     17282       148  SOPE      H9X           -17.2114436952       25.8658482097      -10.6529592340  MEMB      148             0.0000000000
     17283       148  SOPE      H9Y           -18.7467775586       25.5527528358      -11.6199398254  MEMB      148             0.0000000000
     17284       148  SOPE      C310          -18.8890006103       27.2190683210      -10.3198679954  MEMB      148             0.0000000000
     17285       148  SOPE      H10X          -19.7630839085       27.5032085040      -10.9440172266  MEMB      148             0.0000000000
     17286       148  SOPE      H10Y          -18.2746134655       28.1335261239      -10.1762829023  MEMB      148             0.0000000000
     17287       148  SOPE      C311          -19.3957592695       26.5886046640       -9.0588820511  MEMB      148             0.0000000000
     17288       148  SOPE      H11X          -19.5054245449       25.5153734984       -9.3243426986  MEMB      148             0.0000000000
     17289       148  SOPE      H11Y          -20.3731881090       26.9657461794       -8.6891277504  MEMB      148             0.0000000000
     17290       148  SOPE      C312          -18.4475721758       26.6380585254       -7.7908083590  MEMB      148             0.0000000000
     17291       148  SOPE      H12X          -18.4197605809       27.7348749753       -7.6160481341  MEMB      148             0.0000000000
     17292       148  SOPE      H12Y          -17.4343424929       26.2856138134       -8.0797193704  MEMB      148             0.0000000000
     17293       148  SOPE      C313          -19.0740186415       25.9672778976       -6.5163875104  MEMB      148             0.0000000000
     17294       148  SOPE      H13X          -19.2227906388       24.9314784205       -6.8896264405  MEMB      148             0.0000000000
     17295       148  SOPE      H13Y          -20.0137115606       26.5083124017       -6.2743550172  MEMB      148             0.0000000000
     17296       148  SOPE      C314          -18.0946487323       25.9995604432       -5.2227584024  MEMB      148             0.0000000000
     17297       148  SOPE      H14X          -17.8400219353       27.0596952309       -5.0092155823  MEMB      148             0.0000000000
     17298       148  SOPE      H14Y          -17.2755859687       25.2674823079       -5.3886462026  MEMB      148             0.0000000000
     17299       148  SOPE      C315          -18.8796351584       25.5550724169       -3.9752621304  MEMB      148             0.0000000000
     17300       148  SOPE      H15X          -19.5201238454       24.6577303332       -4.1126387308  MEMB      148             0.0000000000
     17301       148  SOPE      H15Y          -19.5899914561       26.3420620547       -3.6430546681  MEMB      148             0.0000000000
     17302       148  SOPE      C316          -18.0579309618       25.3711653506       -2.6858336188  MEMB      148             0.0000000000
     17303       148  SOPE      H16X          -17.4664984117       26.2423484762       -2.3314758823  MEMB      148             0.0000000000
     17304       148  SOPE      H16Y          -17.3664792318       24.5681263765       -3.0195159139  MEMB      148             0.0000000000
     17305       148  SOPE      C317          -18.9554013323       25.0509912010       -1.5074256343  MEMB      148             0.0000000000
     17306       148  SOPE      H17X          -19.7932502246       24.3672632909       -1.7620734033  MEMB      148             0.0000000000
     17307       148  SOPE      H17Y          -19.4140874892       25.9750824727       -1.0951353295  MEMB      148             0.0000000000
     17308       148  SOPE      C318          -18.1231388988       24.4362081247       -0.4683068538  MEMB      148             0.0000000000
     17309       148  SOPE      H18X          -18.7493008272       24.3266111236        0.4428618766  MEMB      148             0.0000000000
     17310       148  SOPE      H18Y          -17.2221675912       25.0657489313       -0.3062906128  MEMB      148             0.0000000000
     17311       148  SOPE      H18Z          -17.7020315593       23.4584310277       -0.7860206336  MEMB      148             0.0000000000
     17312       149  SAPI      C12           -23.0167018007      -21.4827040011      -24.3267675987  MEMB      149             0.0000000000
     17313       149  SAPI      H2            -22.4513629822      -22.3735847943      -23.9788532320  MEMB      149             0.0000000000
     17314       149  SAPI      O2            -22.0147158578      -20.5004415384      -24.4217948167  MEMB      149             0.0000000000
     17315       149  SAPI      HO2           -21.1756629315      -20.9653866567      -24.4594271541  MEMB      149             0.0000000000
     17316       149  SAPI      C13           -23.7878589009      -21.7536894884      -25.5877505128  MEMB      149             0.0000000000
     17317       149  SAPI      H3            -24.4056907485      -22.6770552587      -25.5884398782  MEMB      149             0.0000000000
     17318       149  SAPI      O3            -22.8872180246      -22.0676901818      -26.6574242877  MEMB      149             0.0000000000
     17319       149  SAPI      HO3           -22.4058698143      -22.8424262950      -26.3579450303  MEMB      149             0.0000000000
     17320       149  SAPI      C14           -24.6163864746      -20.5175694671      -25.8669066027  MEMB      149             0.0000000000
     17321       149  SAPI      H4            -23.9298755427      -19.6529412201      -25.9911712760  MEMB      149             0.0000000000
     17322       149  SAPI      O4            -25.4265664676      -20.6845504477      -27.0615866236  MEMB      149             0.0000000000
     17323       149  SAPI      HO4           -25.8843345316      -21.5242130288      -26.9778313981  MEMB      149             0.0000000000
     17324       149  SAPI      C15           -25.6082402627      -20.1858590386      -24.6514780932  MEMB      149             0.0000000000
     17325       149  SAPI      H5            -26.1012440689      -21.1669529334      -24.4820001446  MEMB      149             0.0000000000
     17326       149  SAPI      O5            -26.4508450489      -19.0589718555      -24.8423208269  MEMB      149             0.0000000000
     17327       149  SAPI      HO5           -27.2915672579      -19.3143058564      -24.4555513635  MEMB      149             0.0000000000
     17328       149  SAPI      C16           -24.8556102204      -19.9123307306      -23.4103429653  MEMB      149             0.0000000000
     17329       149  SAPI      H6            -24.0596982736      -19.1534049245      -23.5680670601  MEMB      149             0.0000000000
     17330       149  SAPI      O6            -25.6502340820      -19.6094023847      -22.2808791666  MEMB      149             0.0000000000
     17331       149  SAPI      HO6           -26.5307462749      -19.9796941456      -22.3767028255  MEMB      149             0.0000000000
     17332       149  SAPI      C11           -23.9719025224      -21.1855466813      -23.1476981536  MEMB      149             0.0000000000
     17333       149  SAPI      H1            -24.5087726993      -22.1452161962      -22.9891866108  MEMB      149             0.0000000000
     17334       149  SAPI      P             -23.4403732699      -21.6978069711      -20.5437445460  MEMB      149             0.0000000000
     17335       149  SAPI      O13           -23.4257705562      -23.1853386761      -20.6219267666  MEMB      149             0.0000000000
     17336       149  SAPI      O14           -24.6717375033      -21.1044537019      -19.9254579147  MEMB      149             0.0000000000
     17337       149  SAPI      O12           -23.0698082303      -21.0362713437      -22.0661845919  MEMB      149             0.0000000000
     17338       149  SAPI      O11           -22.2409513787      -21.1800557489      -19.6870537353  MEMB      149             0.0000000000
     17339       149  SAPI      C1            -20.9251281165      -21.4823744581      -19.8261428460  MEMB      149             0.0000000000
     17340       149  SAPI      HA            -20.8319899297      -22.5861444489      -19.7404800143  MEMB      149             0.0000000000
     17341       149  SAPI      HB            -20.4994593610      -21.0695221078      -20.7656533691  MEMB      149             0.0000000000
     17342       149  SAPI      C2            -20.1445584689      -20.8823815871      -18.6490327412  MEMB      149             0.0000000000
     17343       149  SAPI      HS            -19.1786887545      -21.4279681780      -18.7102876038  MEMB      149             0.0000000000
     17344       149  SAPI      O21           -20.8940070092      -21.2248989566      -17.4873331983  MEMB      149             0.0000000000
     17345       149  SAPI      C21           -20.2321713704      -21.8551028640      -16.5448774902  MEMB      149             0.0000000000
     17346       149  SAPI      O22           -19.0648686000      -22.1777143784      -16.5677306275  MEMB      149             0.0000000000
     17347       149  SAPI      C22           -21.0672038816      -22.0668345876      -15.3361164250  MEMB      149             0.0000000000
     17348       149  SAPI      H2R           -20.5890349089      -22.7433603723      -14.5958539445  MEMB      149             0.0000000000
     17349       149  SAPI      H2S           -21.2912662422      -21.1050949240      -14.8270252667  MEMB      149             0.0000000000
     17350       149  SAPI      C3            -19.8410388785      -19.3371815096      -18.6804568600  MEMB      149             0.0000000000
     17351       149  SAPI      HX            -20.6872621619      -18.6618389808      -18.9297352635  MEMB      149             0.0000000000
     17352       149  SAPI      HY            -19.1066602539      -19.3980923169      -19.5119007268  MEMB      149             0.0000000000
     17353       149  SAPI      O31           -19.1795020195      -18.8908398248      -17.5481729006  MEMB      149             0.0000000000
     17354       149  SAPI      C31           -19.8634114883      -18.5850256336      -16.4778596123  MEMB      149             0.0000000000
     17355       149  SAPI      O32           -21.0780573147      -18.7465466542      -16.3726198396  MEMB      149             0.0000000000
     17356       149  SAPI      C32           -18.9128817392      -18.0720052016      -15.4422300128  MEMB      149             0.0000000000
     17357       149  SAPI      H2X           -18.7600958966      -16.9743536982      -15.5205829489  MEMB      149             0.0000000000
     17358       149  SAPI      H2Y           -17.8907244913      -18.4804283479      -15.5929165991  MEMB      149             0.0000000000
     17359       149  SAPI      C23           -22.2824455073      -22.7515545659      -15.8518857761  MEMB      149             0.0000000000
     17360       149  SAPI      H3R           -22.1918817606      -23.5358207500      -16.6335800220  MEMB      149             0.0000000000
     17361       149  SAPI      H3S           -22.9237156596      -21.9877719633      -16.3415076105  MEMB      149             0.0000000000
     17362       149  SAPI      C24           -23.3118953407      -23.2067046607      -14.7884568480  MEMB      149             0.0000000000
     17363       149  SAPI      H4R           -24.3668483248      -23.2975801744      -15.1248148808  MEMB      149             0.0000000000
     17364       149  SAPI      H4S           -23.2758825189      -22.4268692328      -13.9979627502  MEMB      149             0.0000000000
     17365       149  SAPI      C25           -22.8382630541      -24.4782692389      -14.1093208006  MEMB      149             0.0000000000
     17366       149  SAPI      H5R           -22.6648881654      -25.3216124266      -14.7939472641  MEMB      149             0.0000000000
     17367       149  SAPI      C26           -22.6048126312      -24.7136705387      -12.8341264410  MEMB      149             0.0000000000
     17368       149  SAPI      H6R           -22.2135882283      -25.6993665251      -12.5419847222  MEMB      149             0.0000000000
     17369       149  SAPI      C27           -22.7312160908      -23.7444411370      -11.6449589865  MEMB      149             0.0000000000
     17370       149  SAPI      H7R           -22.6287054129      -24.4187365568      -10.7679536597  MEMB      149             0.0000000000
     17371       149  SAPI      H7S           -23.7809459530      -23.4016724786      -11.7670150576  MEMB      149             0.0000000000
     17372       149  SAPI      C28           -21.8603911243      -22.4662350409      -11.6781345053  MEMB      149             0.0000000000
     17373       149  SAPI      H8R           -21.0939336924      -22.4934285244      -12.4666796972  MEMB      149             0.0000000000
     17374       149  SAPI      C29           -21.9871834313      -21.4076371189      -10.9210959278  MEMB      149             0.0000000000
     17375       149  SAPI      H9R           -21.4443252460      -20.4757531002      -11.1376533204  MEMB      149             0.0000000000
     17376       149  SAPI      C210          -23.0479991243      -21.3243737912       -9.8396358940  MEMB      149             0.0000000000
     17377       149  SAPI      H10R          -23.4255412521      -22.3233560618       -9.5333401644  MEMB      149             0.0000000000
     17378       149  SAPI      H10S          -23.9537971422      -20.7819872492      -10.1855667190  MEMB      149             0.0000000000
     17379       149  SAPI      C211          -22.5365895832      -20.6926467492       -8.5138066048  MEMB      149             0.0000000000
     17380       149  SAPI      H11R          -21.6626999425      -20.0245951355       -8.5186981820  MEMB      149             0.0000000000
     17381       149  SAPI      C212          -23.3523858203      -20.6422728781       -7.4136405073  MEMB      149             0.0000000000
     17382       149  SAPI      H12R          -22.9772348841      -20.0808045679       -6.5453004170  MEMB      149             0.0000000000
     17383       149  SAPI      C213          -24.7790839806      -21.1633485663       -7.1729551326  MEMB      149             0.0000000000
     17384       149  SAPI      H13R          -24.9894671438      -21.8285990325       -8.0375371896  MEMB      149             0.0000000000
     17385       149  SAPI      H13S          -25.6258014627      -20.4467555904       -7.2352849450  MEMB      149             0.0000000000
     17386       149  SAPI      C214          -24.7172693261      -21.9105995128       -5.9179701064  MEMB      149             0.0000000000
     17387       149  SAPI      H14R          -24.0719393525      -22.7990440217       -5.9828977833  MEMB      149             0.0000000000
     17388       149  SAPI      C215          -25.4165932704      -21.7612693210       -4.7716334792  MEMB      149             0.0000000000
     17389       149  SAPI      H15R          -25.2904951224      -22.5267664238       -3.9918171935  MEMB      149             0.0000000000
     17390       149  SAPI      C216          -26.4124658079      -20.7347984309       -4.5110786676  MEMB      149             0.0000000000
     17391       149  SAPI      H16R          -27.3672201672      -21.1873010491       -4.1675586374  MEMB      149             0.0000000000
     17392       149  SAPI      H16S          -26.6820387075      -20.1412568803       -5.4107230960  MEMB      149             0.0000000000
     17393       149  SAPI      C217          -25.9951479025      -19.6404178199       -3.5702754568  MEMB      149             0.0000000000
     17394       149  SAPI      H17R          -26.7733975291      -18.8477966118       -3.5902767535  MEMB      149             0.0000000000
     17395       149  SAPI      H17S          -25.0715311502      -19.1652453715       -3.9645648472  MEMB      149             0.0000000000
     17396       149  SAPI      C218          -26.1692683088      -20.0587213713       -2.0921019810  MEMB      149             0.0000000000
     17397       149  SAPI      H18R          -25.6838237448      -21.0386103965       -1.8959337512  MEMB      149             0.0000000000
     17398       149  SAPI      H18S          -27.2511220789      -20.1942876991       -1.8787142196  MEMB      149             0.0000000000
     17399       149  SAPI      C219          -25.6714591100      -19.0074858623       -1.0408820329  MEMB      149             0.0000000000
     17400       149  SAPI      H19R          -24.5854120124      -18.9352839146       -1.2636133011  MEMB      149             0.0000000000
     17401       149  SAPI      H19S          -25.7467311902      -19.4111386311       -0.0085451950  MEMB      149             0.0000000000
     17402       149  SAPI      C220          -26.4425581602      -17.6656137164       -0.9504370264  MEMB      149             0.0000000000
     17403       149  SAPI      H20R          -26.1071177008      -17.0769955474       -0.0699107739  MEMB      149             0.0000000000
     17404       149  SAPI      H20S          -27.5250228907      -17.8864351142       -0.8328413783  MEMB      149             0.0000000000
     17405       149  SAPI      H20T          -26.4186589383      -17.1996654094       -1.9587253500  MEMB      149             0.0000000000
     17406       149  SAPI      C33           -19.4488317132      -18.5683665218      -14.0291899215  MEMB      149             0.0000000000
     17407       149  SAPI      H3X           -19.9327710731      -19.5581738424      -14.1720367058  MEMB      149             0.0000000000
     17408       149  SAPI      H3Y           -20.2592504401      -17.8568632288      -13.7621590096  MEMB      149             0.0000000000
     17409       149  SAPI      C34           -18.3847336330      -18.7041665069      -13.0463375417  MEMB      149             0.0000000000
     17410       149  SAPI      H4X           -17.7612058019      -17.8055518620      -12.8513361928  MEMB      149             0.0000000000
     17411       149  SAPI      H4Y           -17.6790016840      -19.4952749359      -13.3786186365  MEMB      149             0.0000000000
     17412       149  SAPI      C35           -18.8760446210      -18.9965067491      -11.6047064261  MEMB      149             0.0000000000
     17413       149  SAPI      H5X           -17.9955830476      -19.0067363860      -10.9272088196  MEMB      149             0.0000000000
     17414       149  SAPI      H5Y           -19.1446037042      -20.0741383523      -11.5745859168  MEMB      149             0.0000000000
     17415       149  SAPI      C36           -20.0753179944      -18.3075370060      -11.0361800257  MEMB      149             0.0000000000
     17416       149  SAPI      H6X           -20.3933846513      -18.8562624184      -10.1240100672  MEMB      149             0.0000000000
     17417       149  SAPI      H6Y           -20.9800887639      -18.3288409318      -11.6805848131  MEMB      149             0.0000000000
     17418       149  SAPI      C37           -19.7933445214      -16.8112291473      -10.9356277048  MEMB      149             0.0000000000
     17419       149  SAPI      H7X           -19.8671185000      -16.3717686890      -11.9533470669  MEMB      149             0.0000000000
     17420       149  SAPI      H7Y           -18.8046391460      -16.6311301313      -10.4619747174  MEMB      149             0.0000000000
     17421       149  SAPI      C38           -20.7971441671      -16.1566490023       -9.9442433890  MEMB      149             0.0000000000
     17422       149  SAPI      H8X           -21.8341765776      -16.2335229451      -10.3353637383  MEMB      149             0.0000000000
     17423       149  SAPI      H8Y           -20.4680713342      -15.0994263164       -9.8530687695  MEMB      149             0.0000000000
     17424       149  SAPI      C39           -20.5182490161      -16.6783153376       -8.5139433551  MEMB      149             0.0000000000
     17425       149  SAPI      H9X           -19.6221309611      -16.1100689152       -8.1847181978  MEMB      149             0.0000000000
     17426       149  SAPI      H9Y           -20.3455584885      -17.7757151510       -8.4993468511  MEMB      149             0.0000000000
     17427       149  SAPI      C310          -21.5694330809      -16.1737275176       -7.5454860703  MEMB      149             0.0000000000
     17428       149  SAPI      H10X          -22.5588892239      -16.4938821298       -7.9363801269  MEMB      149             0.0000000000
     17429       149  SAPI      H10Y          -21.4674318891      -15.0731385092       -7.4331428819  MEMB      149             0.0000000000
     17430       149  SAPI      C311          -21.5459363784      -16.8335467158       -6.1524842473  MEMB      149             0.0000000000
     17431       149  SAPI      H11X          -21.7937486004      -17.9116189751       -6.2557820427  MEMB      149             0.0000000000
     17432       149  SAPI      H11Y          -22.3644830607      -16.2528862236       -5.6758962863  MEMB      149             0.0000000000
     17433       149  SAPI      C312          -20.2807258185      -16.6148027747       -5.2914430342  MEMB      149             0.0000000000
     17434       149  SAPI      H12X          -20.5080696365      -15.9870278174       -4.4034482055  MEMB      149             0.0000000000
     17435       149  SAPI      H12Y          -19.4754563666      -16.1755510984       -5.9182759569  MEMB      149             0.0000000000
     17436       149  SAPI      C313          -19.7055299308      -17.8844892064       -4.7198495644  MEMB      149             0.0000000000
     17437       149  SAPI      H13X          -18.7176403758      -17.6488396239       -4.2694449122  MEMB      149             0.0000000000
     17438       149  SAPI      H13Y          -19.3907866033      -18.6516492936       -5.4592569013  MEMB      149             0.0000000000
     17439       149  SAPI      C314          -20.5354036114      -18.5816616021       -3.6318953831  MEMB      149             0.0000000000
     17440       149  SAPI      H14X          -21.4574065978      -18.9087385760       -4.1584415401  MEMB      149             0.0000000000
     17441       149  SAPI      H14Y          -20.8655270931      -17.8802625153       -2.8360441079  MEMB      149             0.0000000000
     17442       149  SAPI      C315          -19.7638042402      -19.6385206173       -2.8815762026  MEMB      149             0.0000000000
     17443       149  SAPI      H15X          -18.7198688475      -19.2592896230       -2.9081055478  MEMB      149             0.0000000000
     17444       149  SAPI      H15Y          -19.8087455293      -20.5026853840       -3.5783689319  MEMB      149             0.0000000000
     17445       149  SAPI      C316          -20.3563340190      -20.1105396359       -1.5573228331  MEMB      149             0.0000000000
     17446       149  SAPI      H16X          -20.2265153423      -19.3487424897       -0.7591176293  MEMB      149             0.0000000000
     17447       149  SAPI      H16Y          -19.7572137150      -20.9585979186       -1.1621358651  MEMB      149             0.0000000000
     17448       149  SAPI      C317          -21.8473942669      -20.4934493551       -1.5945068814  MEMB      149             0.0000000000
     17449       149  SAPI      H17X          -22.5094322092      -19.7285135088       -2.0537453418  MEMB      149             0.0000000000
     17450       149  SAPI      H17Y          -22.1441719688      -20.3667922416       -0.5313976169  MEMB      149             0.0000000000
     17451       149  SAPI      C318          -22.2427303479      -21.8443671622       -2.1380770002  MEMB      149             0.0000000000
     17452       149  SAPI      H18X          -21.6023988873      -21.9504702519       -3.0397629192  MEMB      149             0.0000000000
     17453       149  SAPI      H18Y          -23.3336975566      -21.9403869241       -2.3248700617  MEMB      149             0.0000000000
     17454       149  SAPI      H18Z          -21.8863892982      -22.7116238855       -1.5420839169  MEMB      149             0.0000000000
     17455       150  OSM       N             -17.7712442848      -24.8077512712      -21.6603123487  MEMB      150             0.0000000000
     17456       150  OSM       C15           -18.7851137785      -25.2173955525      -22.7434122992  MEMB      150             0.0000000000
     17457       150  OSM       H15A          -18.3465164918      -24.9260794650      -23.6863690957  MEMB      150             0.0000000000
     17458       150  OSM       H15B          -19.7516274899      -24.7474454943      -22.6366489949  MEMB      150             0.0000000000
     17459       150  OSM       H15C          -18.9456178291      -26.2850540886      -22.7161421021  MEMB      150             0.0000000000
     17460       150  OSM       C14           -17.8667287372      -23.3324442455      -21.6512982066  MEMB      150             0.0000000000
     17461       150  OSM       H14A          -16.9476631092      -22.8839761440      -21.3040309673  MEMB      150             0.0000000000
     17462       150  OSM       H14B          -18.6292936351      -23.1291902157      -20.9140175679  MEMB      150             0.0000000000
     17463       150  OSM       H14C          -18.1286884441      -22.9935182381      -22.6427144805  MEMB      150             0.0000000000
     17464       150  OSM       C13           -18.2655640869      -25.3343615203      -20.3428268786  MEMB      150             0.0000000000
     17465       150  OSM       H13A          -19.2969002128      -25.0162301908      -20.3036022437  MEMB      150             0.0000000000
     17466       150  OSM       H13B          -17.6284570390      -24.9762362690      -19.5476912256  MEMB      150             0.0000000000
     17467       150  OSM       H13C          -18.1792361969      -26.4076956052      -20.4259018233  MEMB      150             0.0000000000
     17468       150  OSM       C12           -16.3904484123      -25.2758056570      -22.0172116187  MEMB      150             0.0000000000
     17469       150  OSM       H12A          -15.7934638436      -24.8738563395      -21.2119500556  MEMB      150             0.0000000000
     17470       150  OSM       H12B          -16.1386939002      -24.7600668601      -22.9321066829  MEMB      150             0.0000000000
     17471       150  OSM       C11           -16.0807116765      -26.7672263824      -22.1686863368  MEMB      150             0.0000000000
     17472       150  OSM       H11A          -15.0188611929      -26.9710650480      -22.4241159657  MEMB      150             0.0000000000
     17473       150  OSM       H11B          -16.6450004251      -27.2093538196      -23.0174633378  MEMB      150             0.0000000000
     17474       150  OSM       P             -15.3816498124      -28.1099952258      -20.0809151364  MEMB      150             0.0000000000
     17475       150  OSM       O13           -16.1753361080      -28.8253883328      -19.0553654799  MEMB      150             0.0000000000
     17476       150  OSM       O14           -14.4934470377      -28.8709154355      -20.9714815287  MEMB      150             0.0000000000
     17477       150  OSM       O11           -14.5796503349      -26.9992917906      -19.3431185719  MEMB      150             0.0000000000
     17478       150  OSM       O12           -16.4394244338      -27.4114650886      -20.9653715926  MEMB      150             0.0000000000
     17479       150  OSM       C1S           -15.2415348303      -26.1144527896      -18.5044669850  MEMB      150             0.0000000000
     17480       150  OSM       H1S           -16.3335122781      -25.9818375411      -18.6604140877  MEMB      150             0.0000000000
     17481       150  OSM       H1T           -14.8341882623      -25.0915234435      -18.6528089233  MEMB      150             0.0000000000
     17482       150  OSM       NF            -15.5590798106      -25.5355366834      -16.1652573880  MEMB      150             0.0000000000
     17483       150  OSM       HNF           -14.9051309799      -25.0065242970      -15.6299949805  MEMB      150             0.0000000000
     17484       150  OSM       C2S           -14.9158014186      -26.5090426867      -16.9550485037  MEMB      150             0.0000000000
     17485       150  OSM       H2S           -15.4759007885      -27.4513050591      -16.7740753072  MEMB      150             0.0000000000
     17486       150  OSM       C3S           -13.4051068032      -26.4973236167      -16.6589039111  MEMB      150             0.0000000000
     17487       150  OSM       H3S           -13.0082643847      -25.4940467714      -16.9239941017  MEMB      150             0.0000000000
     17488       150  OSM       O3            -12.5782455775      -27.4596632719      -17.4057244770  MEMB      150             0.0000000000
     17489       150  OSM       HO3           -13.1769628107      -27.8898668421      -18.0205926029  MEMB      150             0.0000000000
     17490       150  OSM       C4S           -13.2049109592      -26.7453918685      -15.1628970290  MEMB      150             0.0000000000
     17491       150  OSM       H4S           -13.8958332122      -27.5421922426      -14.8502697432  MEMB      150             0.0000000000
     17492       150  OSM       C5S           -12.4295410284      -25.9700270750      -14.3321697589  MEMB      150             0.0000000000
     17493       150  OSM       H5S           -11.9595486250      -25.0416524632      -14.6888599796  MEMB      150             0.0000000000
     17494       150  OSM       C6S           -12.2709904835      -26.2247404691      -12.8546792914  MEMB      150             0.0000000000
     17495       150  OSM       H6S           -11.9673586583      -25.2887820362      -12.3388201414  MEMB      150             0.0000000000
     17496       150  OSM       H6T           -11.4256135725      -26.9365475042      -12.7407067741  MEMB      150             0.0000000000
     17497       150  OSM       C7S           -13.4280457463      -26.8820151681      -12.0479744471  MEMB      150             0.0000000000
     17498       150  OSM       H7S           -13.0753782489      -27.0023179243      -11.0013255685  MEMB      150             0.0000000000
     17499       150  OSM       H7T           -13.6204756960      -27.8886842939      -12.4768201186  MEMB      150             0.0000000000
     17500       150  OSM       C8S           -14.8011269431      -26.0805914908      -12.1028817130  MEMB      150             0.0000000000
     17501       150  OSM       H8S           -15.2203514205      -26.0644203866      -13.1316237553  MEMB      150             0.0000000000
     17502       150  OSM       H8T           -14.7038734355      -25.0424282723      -11.7193721871  MEMB      150             0.0000000000
     17503       150  OSM       C9S           -15.8455851690      -26.7084162739      -11.1988791044  MEMB      150             0.0000000000
     17504       150  OSM       H9S           -16.0551127827      -27.7478888197      -11.5304158829  MEMB      150             0.0000000000
     17505       150  OSM       H9T           -16.7544099320      -26.1373732473      -11.4857037511  MEMB      150             0.0000000000
     17506       150  OSM       C10S          -15.4890187997      -26.7889859464       -9.6945762287  MEMB      150             0.0000000000
     17507       150  OSM       H10S          -15.4325726130      -25.7602842589       -9.2787542010  MEMB      150             0.0000000000
     17508       150  OSM       H10T          -14.4788196195      -27.2421582360       -9.6026353163  MEMB      150             0.0000000000
     17509       150  OSM       C11S          -16.5557177176      -27.6769361984       -9.1404920364  MEMB      150             0.0000000000
     17510       150  OSM       H11S          -16.6328941958      -28.6298274788       -9.7064973955  MEMB      150             0.0000000000
     17511       150  OSM       H11T          -17.5149788249      -27.1165111894       -9.1484299284  MEMB      150             0.0000000000
     17512       150  OSM       C12S          -16.1969103362      -28.0276366700       -7.6274970600  MEMB      150             0.0000000000
     17513       150  OSM       H12S          -16.1251874824      -27.0526372791       -7.0997162424  MEMB      150             0.0000000000
     17514       150  OSM       H12T          -15.1523010766      -28.4048713705       -7.5990994775  MEMB      150             0.0000000000
     17515       150  OSM       C13S          -17.2230989499      -28.8899531836       -6.8413135172  MEMB      150             0.0000000000
     17516       150  OSM       H13S          -17.1782911578      -29.9719126118       -7.0896623953  MEMB      150             0.0000000000
     17517       150  OSM       H13T          -18.2725169020      -28.7200616846       -7.1640819757  MEMB      150             0.0000000000
     17518       150  OSM       C14S          -17.1296288464      -28.6754576133       -5.3041506562  MEMB      150             0.0000000000
     17519       150  OSM       H14S          -16.0887590055      -28.5142450016       -4.9507078661  MEMB      150             0.0000000000
     17520       150  OSM       H14T          -17.4481152205      -29.7010469385       -5.0194513527  MEMB      150             0.0000000000
     17521       150  OSM       C15S          -18.0505472973      -27.5559070952       -4.8130954089  MEMB      150             0.0000000000
     17522       150  OSM       H15S          -19.0699529256      -27.7371270891       -5.2159509279  MEMB      150             0.0000000000
     17523       150  OSM       H15T          -17.7174345121      -26.5883808611       -5.2458191779  MEMB      150             0.0000000000
     17524       150  OSM       C16S          -18.1311876288      -27.3205626076       -3.3134056739  MEMB      150             0.0000000000
     17525       150  OSM       H16S          -17.1669878116      -27.5421102330       -2.8078800735  MEMB      150             0.0000000000
     17526       150  OSM       H16T          -18.9819082168      -27.9417703289       -2.9602805565  MEMB      150             0.0000000000
     17527       150  OSM       C17S          -18.5446155462      -25.8956454767       -2.8661967646  MEMB      150             0.0000000000
     17528       150  OSM       H17S          -19.2576675746      -25.4263901725       -3.5773052841  MEMB      150             0.0000000000
     17529       150  OSM       H17T          -17.7167385400      -25.2007400043       -3.1231916749  MEMB      150             0.0000000000
     17530       150  OSM       C18S          -19.1307312632      -25.7366924880       -1.4681673328  MEMB      150             0.0000000000
     17531       150  OSM       H18S          -19.4145044657      -24.7102660508       -1.1515559770  MEMB      150             0.0000000000
     17532       150  OSM       H18T          -18.4068828459      -26.0715724432       -0.6947205070  MEMB      150             0.0000000000
     17533       150  OSM       H18U          -20.1236050973      -26.2351967207       -1.4641580250  MEMB      150             0.0000000000
     17534       150  OSM       C1F           -16.8916367229      -25.2821235725      -16.1067936960  MEMB      150             0.0000000000
     17535       150  OSM       OF            -17.6645338573      -25.9559304866      -16.6848035370  MEMB      150             0.0000000000
     17536       150  OSM       C2F           -17.2781422482      -24.0468417852      -15.3351235517  MEMB      150             0.0000000000
     17537       150  OSM       H2F           -17.2910110258      -23.2718281232      -16.1310563730  MEMB      150             0.0000000000
     17538       150  OSM       H2G           -16.4463648919      -23.8406825600      -14.6280407815  MEMB      150             0.0000000000
     17539       150  OSM       C3F           -18.6301172713      -24.2124646422      -14.6018495303  MEMB      150             0.0000000000
     17540       150  OSM       H3F           -18.5836814591      -24.9615330721      -13.7826662309  MEMB      150             0.0000000000
     17541       150  OSM       H3G           -19.3429610561      -24.5637498463      -15.3782343622  MEMB      150             0.0000000000
     17542       150  OSM       C4F           -19.2462933705      -22.9198686525      -13.9831330510  MEMB      150             0.0000000000
     17543       150  OSM       H4F           -20.1396527062      -23.1440637414      -13.3618709266  MEMB      150             0.0000000000
     17544       150  OSM       H4G           -19.3862696870      -22.1513728504      -14.7731597278  MEMB      150             0.0000000000
     17545       150  OSM       C5F           -18.2994466487      -22.3137054493      -12.8561263010  MEMB      150             0.0000000000
     17546       150  OSM       H5F           -18.8844588544      -21.4385961070      -12.5007887794  MEMB      150             0.0000000000
     17547       150  OSM       H5G           -17.3727235469      -21.9273003622      -13.3317270989  MEMB      150             0.0000000000
     17548       150  OSM       C6F           -17.9158669926      -23.3395696587      -11.7420644339  MEMB      150             0.0000000000
     17549       150  OSM       H6F           -17.0216576913      -23.9233773367      -12.0484614197  MEMB      150             0.0000000000
     17550       150  OSM       H6G           -18.7348449371      -24.0890086085      -11.6980487164  MEMB      150             0.0000000000
     17551       150  OSM       C7F           -17.4701892235      -22.6794798441      -10.4348401892  MEMB      150             0.0000000000
     17552       150  OSM       H7F           -17.2170309467      -21.6202270067      -10.6544203621  MEMB      150             0.0000000000
     17553       150  OSM       H7G           -16.6352400980      -23.1952531496       -9.9141107545  MEMB      150             0.0000000000
     17554       150  OSM       C8F           -18.6664294705      -22.4720860390       -9.4415754193  MEMB      150             0.0000000000
     17555       150  OSM       H8F           -19.5111203389      -22.1029455296      -10.0616993921  MEMB      150             0.0000000000
     17556       150  OSM       H8G           -18.3359467034      -21.6040618588       -8.8319560851  MEMB      150             0.0000000000
     17557       150  OSM       C9F           -19.0241195397      -23.6836492463       -8.5966920399  MEMB      150             0.0000000000
     17558       150  OSM       H9F           -19.2075444482      -24.6183869069       -9.1468018681  MEMB      150             0.0000000000
     17559       150  OSM       C10F          -19.1012095904      -23.7231879685       -7.2145379398  MEMB      150             0.0000000000
     17560       150  OSM       H10F          -19.4641978882      -24.6076136682       -6.6704513122  MEMB      150             0.0000000000
     17561       150  OSM       C11F          -18.8941723807      -22.5395748612       -6.3733322156  MEMB      150             0.0000000000
     17562       150  OSM       H11F          -19.4062303064      -22.6394124908       -5.3924398058  MEMB      150             0.0000000000
     17563       150  OSM       H11G          -19.4750880376      -21.8019097209       -6.9672245819  MEMB      150             0.0000000000
     17564       150  OSM       C12F          -17.4434380207      -22.1458832476       -5.9776721232  MEMB      150             0.0000000000
     17565       150  OSM       H12F          -17.4027275585      -21.2125521725       -5.3763767464  MEMB      150             0.0000000000
     17566       150  OSM       H12G          -16.8071322784      -21.9203529398       -6.8600399776  MEMB      150             0.0000000000
     17567       150  OSM       C13F          -16.6765666446      -23.1387732722       -5.0809400945  MEMB      150             0.0000000000
     17568       150  OSM       H13F          -17.2901661692      -24.0556647967       -4.9500711487  MEMB      150             0.0000000000
     17569       150  OSM       H13G          -16.4402016749      -22.7704020992       -4.0597857470  MEMB      150             0.0000000000
     17570       150  OSM       C14F          -15.4584016727      -23.7009600333       -5.8558800324  MEMB      150             0.0000000000
     17571       150  OSM       H14F          -14.5641815083      -23.0613399848       -5.6959504467  MEMB      150             0.0000000000
     17572       150  OSM       H14G          -15.8507908606      -23.8026332992       -6.8902954025  MEMB      150             0.0000000000
     17573       150  OSM       C15F          -14.8342543674      -25.0272831646       -5.2716520641  MEMB      150             0.0000000000
     17574       150  OSM       H15F          -13.9496207641      -25.4421910793       -5.8004200365  MEMB      150             0.0000000000
     17575       150  OSM       H15G          -15.7002834239      -25.7064932471       -5.4232710912  MEMB      150             0.0000000000
     17576       150  OSM       C16F          -14.5985188947      -24.8973336554       -3.7454896908  MEMB      150             0.0000000000
     17577       150  OSM       H16F          -14.4953053012      -25.9603212313       -3.4393446530  MEMB      150             0.0000000000
     17578       150  OSM       H16G          -15.4267688536      -24.5720567436       -3.0802704756  MEMB      150             0.0000000000
     17579       150  OSM       C17F          -13.2881434987      -24.1695394032       -3.5179099538  MEMB      150             0.0000000000
     17580       150  OSM       H17F          -13.5408457634      -23.0963979402       -3.6551326999  MEMB      150             0.0000000000
     17581       150  OSM       H17G          -12.4156383871      -24.5274892845       -4.1052153938  MEMB      150             0.0000000000
     17582       150  OSM       C18F          -12.8297733836      -24.3678660332       -2.0302524889  MEMB      150             0.0000000000
     17583       150  OSM       H18F          -12.3977430263      -25.3850213279       -1.9159447571  MEMB      150             0.0000000000
     17584       150  OSM       H18G          -13.6343505724      -24.2531027967       -1.2727511792  MEMB      150             0.0000000000
     17585       150  OSM       H18H          -12.0411737001      -23.6204825018       -1.7981955429  MEMB      150             0.0000000000
     17586       151  CHL1      C3             21.1879595419       23.2462627369      -17.2927250000  MEMB      151             0.0000000000
     17587       151  CHL1      H3             21.2665979482       24.3014475085      -16.9540450000  MEMB      151             0.0000000000
     17588       151  CHL1      O3             21.0460790581       23.2548144631      -18.7072750000  MEMB      151             0.0000000000
     17589       151  CHL1      H3'            20.9710279568       22.3504311350      -19.0204350000  MEMB      151             0.0000000000
     17590       151  CHL1      C4             22.4702226941       22.5135985782      -16.8033950000  MEMB      151             0.0000000000
     17591       151  CHL1      H4A            22.3092101094       21.4461664218      -17.0660150000  MEMB      151             0.0000000000
     17592       151  CHL1      H4B            23.3928827583       22.9192124593      -17.2708550000  MEMB      151             0.0000000000
     17593       151  CHL1      C5             22.4545412907       22.6312485785      -15.2695350000  MEMB      151             0.0000000000
     17594       151  CHL1      C6             23.5587648771       23.1905082521      -14.7038950000  MEMB      151             0.0000000000
     17595       151  CHL1      H6             24.3940136928       23.3980581658      -15.3889350000  MEMB      151             0.0000000000
     17596       151  CHL1      C7             23.6974622942       23.2978882479      -13.2229850000  MEMB      151             0.0000000000
     17597       151  CHL1      H7A            24.7372000839       22.9717872019      -13.0063350000  MEMB      151             0.0000000000
     17598       151  CHL1      H7B            23.5292318431       24.3656997315      -12.9664550000  MEMB      151             0.0000000000
     17599       151  CHL1      C8             22.6804167009       22.4150522973      -12.4953650000  MEMB      151             0.0000000000
     17600       151  CHL1      H8             23.0253561990       21.3857415994      -12.7317250000  MEMB      151             0.0000000000
     17601       151  CHL1      C14            22.7002635936       22.7185478673      -10.9999350000  MEMB      151             0.0000000000
     17602       151  CHL1      H14            22.3243577713       23.7541093299      -10.8562450000  MEMB      151             0.0000000000
     17603       151  CHL1      C15            24.1471440704       22.8405704962      -10.3294950000  MEMB      151             0.0000000000
     17604       151  CHL1      H15A           24.8086588362       22.0608509058      -10.7639550000  MEMB      151             0.0000000000
     17605       151  CHL1      H15B           24.6046486551       23.8284819699      -10.5509650000  MEMB      151             0.0000000000
     17606       151  CHL1      C16            23.8803016272       22.6208174446       -8.8088450000  MEMB      151             0.0000000000
     17607       151  CHL1      H16A           24.3938658857       21.7240501947       -8.4009250000  MEMB      151             0.0000000000
     17608       151  CHL1      H16B           24.0918323692       23.5371419696       -8.2173050000  MEMB      151             0.0000000000
     17609       151  CHL1      C17            22.3031317182       22.3959973291       -8.7107750000  MEMB      151             0.0000000000
     17610       151  CHL1      H17            21.8127123263       23.3896407002       -8.6301750000  MEMB      151             0.0000000000
     17611       151  CHL1      C13            21.8604451842       21.8297642835      -10.0981450000  MEMB      151             0.0000000000
     17612       151  CHL1      C18            22.4446801703       20.3847149179      -10.2583250000  MEMB      151             0.0000000000
     17613       151  CHL1      H18A           23.5432634476       20.3952152361      -10.0930350000  MEMB      151             0.0000000000
     17614       151  CHL1      H18B           21.9056286319       19.7953205659       -9.4860950000  MEMB      151             0.0000000000
     17615       151  CHL1      H18C           22.1150079283       19.8686350817      -11.1853050000  MEMB      151             0.0000000000
     17616       151  CHL1      C12            20.4046495295       22.0482088597      -10.5182150000  MEMB      151             0.0000000000
     17617       151  CHL1      H12A           19.6534135270       21.5026630110       -9.9080250000  MEMB      151             0.0000000000
     17618       151  CHL1      H12B           20.1383416667       23.1253045135      -10.4609450000  MEMB      151             0.0000000000
     17619       151  CHL1      C11            20.2365901662       21.6922147174      -12.0151050000  MEMB      151             0.0000000000
     17620       151  CHL1      H11A           20.6459674160       20.6756254252      -12.1974850000  MEMB      151             0.0000000000
     17621       151  CHL1      H11B           19.1936712284       21.8125059930      -12.3786650000  MEMB      151             0.0000000000
     17622       151  CHL1      C9             21.2269252444       22.5531459452      -12.9540150000  MEMB      151             0.0000000000
     17623       151  CHL1      H9             21.0831546946       23.6542456808      -12.9191650000  MEMB      151             0.0000000000
     17624       151  CHL1      C10            21.1767701867       22.2141346781      -14.4541050000  MEMB      151             0.0000000000
     17625       151  CHL1      C19            21.1326923331       20.5756210097      -14.5942550000  MEMB      151             0.0000000000
     17626       151  CHL1      H19A           22.0262059096       20.1693709858      -14.0737550000  MEMB      151             0.0000000000
     17627       151  CHL1      H19B           20.1718077443       20.1507092782      -14.2330550000  MEMB      151             0.0000000000
     17628       151  CHL1      H19C           21.2861928419       20.4036299163      -15.6810750000  MEMB      151             0.0000000000
     17629       151  CHL1      C1             19.9315149695       22.7940712075      -15.1268950000  MEMB      151             0.0000000000
     17630       151  CHL1      H1A            18.9927844770       22.3865619276      -14.6944050000  MEMB      151             0.0000000000
     17631       151  CHL1      H1B            19.8882824122       23.8793276311      -14.8931050000  MEMB      151             0.0000000000
     17632       151  CHL1      C2             19.9170922481       22.6742467709      -16.6867550000  MEMB      151             0.0000000000
     17633       151  CHL1      H2A            19.0218914382       23.1740911159      -17.1146350000  MEMB      151             0.0000000000
     17634       151  CHL1      H2B            19.7920414598       21.6038629039      -16.9568750000  MEMB      151             0.0000000000
     17635       151  CHL1      C20            21.9291395967       21.6735163069       -7.4010850000  MEMB      151             0.0000000000
     17636       151  CHL1      H20            22.4662209839       20.7010293035       -7.4126150000  MEMB      151             0.0000000000
     17637       151  CHL1      C21            20.4404835470       21.2784683605       -7.3077650000  MEMB      151             0.0000000000
     17638       151  CHL1      H21A           19.7315524243       22.1253476233       -7.4282850000  MEMB      151             0.0000000000
     17639       151  CHL1      H21B           20.4051818691       20.7981085936       -6.3065950000  MEMB      151             0.0000000000
     17640       151  CHL1      H21C           20.2655494731       20.5472590073       -8.1257250000  MEMB      151             0.0000000000
     17641       151  CHL1      C22            22.3983809862       22.4920836390       -6.1522650000  MEMB      151             0.0000000000
     17642       151  CHL1      H22A           23.4161722233       22.9104520471       -6.3051650000  MEMB      151             0.0000000000
     17643       151  CHL1      H22B           21.7902096975       23.3997327614       -5.9507150000  MEMB      151             0.0000000000
     17644       151  CHL1      C23            22.4100385701       21.5632026149       -4.8817150000  MEMB      151             0.0000000000
     17645       151  CHL1      H23A           21.3622782498       21.3605895425       -4.5727650000  MEMB      151             0.0000000000
     17646       151  CHL1      H23B           22.8280869419       20.6383669720       -5.3336350000  MEMB      151             0.0000000000
     17647       151  CHL1      C24            23.2592318615       22.1568346077       -3.7043650000  MEMB      151             0.0000000000
     17648       151  CHL1      H24A           24.2512634818       22.5150413616       -4.0534850000  MEMB      151             0.0000000000
     17649       151  CHL1      H24B           22.7836776642       23.0966431640       -3.3509350000  MEMB      151             0.0000000000
     17650       151  CHL1      C25            23.5436360646       21.1946319583       -2.4958050000  MEMB      151             0.0000000000
     17651       151  CHL1      H25            23.9763741990       20.2940082251       -2.9815450000  MEMB      151             0.0000000000
     17652       151  CHL1      C26            24.5878775474       21.8314118308       -1.5709550000  MEMB      151             0.0000000000
     17653       151  CHL1      H26A           24.2445893461       22.7603958596       -1.0675050000  MEMB      151             0.0000000000
     17654       151  CHL1      H26B           24.8173817923       21.0938906793       -0.7723850000  MEMB      151             0.0000000000
     17655       151  CHL1      H26C           25.4970958042       22.2049212293       -2.0887850000  MEMB      151             0.0000000000
     17656       151  CHL1      C27            22.2237260098       20.8163621182       -1.6611750000  MEMB      151             0.0000000000
     17657       151  CHL1      H27A           21.4896974640       20.4126853074       -2.3909450000  MEMB      151             0.0000000000
     17658       151  CHL1      H27B           22.5910019078       20.0527255844       -0.9426350000  MEMB      151             0.0000000000
     17659       151  CHL1      H27C           21.6846978056       21.6294613344       -1.1295450000  MEMB      151             0.0000000000
     17660       152  CHL1      C3              1.2004884006       31.4387633420      -17.3260350000  MEMB      152             0.0000000000
     17661       152  CHL1      H3              2.2228609407       31.0264444008      -17.1879050000  MEMB      152             0.0000000000
     17662       152  CHL1      O3              1.0158129194       31.3485564580      -18.6739650000  MEMB      152             0.0000000000
     17663       152  CHL1      H3'             1.8948762522       31.5271205335      -19.0159450000  MEMB      152             0.0000000000
     17664       152  CHL1      C4              0.1498963235       30.6838578854      -16.5164650000  MEMB      152             0.0000000000
     17665       152  CHL1      H4A            -0.8659110582       30.9578424097      -16.8733850000  MEMB      152             0.0000000000
     17666       152  CHL1      H4B             0.2577946028       29.6207324007      -16.8205150000  MEMB      152             0.0000000000
     17667       152  CHL1      C5              0.4558576385       31.0052803803      -15.0628250000  MEMB      152             0.0000000000
     17668       152  CHL1      C6              0.5143211925       29.9847806899      -14.1924650000  MEMB      152             0.0000000000
     17669       152  CHL1      H6              0.4777936383       28.9660523745      -14.6057950000  MEMB      152             0.0000000000
     17670       152  CHL1      C7              0.6006185221       30.1875687934      -12.6991750000  MEMB      152             0.0000000000
     17671       152  CHL1      H7A             0.0179308851       29.4371360710      -12.1232950000  MEMB      152             0.0000000000
     17672       152  CHL1      H7B             1.6168758498       30.0607552922      -12.2685150000  MEMB      152             0.0000000000
     17673       152  CHL1      C8              0.0175283470       31.5888828755      -12.2947350000  MEMB      152             0.0000000000
     17674       152  CHL1      H8             -1.0706955745       31.6665194961      -12.5046650000  MEMB      152             0.0000000000
     17675       152  CHL1      C14             0.2633235621       31.7874571301      -10.7578450000  MEMB      152             0.0000000000
     17676       152  CHL1      H14             1.3227887905       31.4848353274      -10.6154850000  MEMB      152             0.0000000000
     17677       152  CHL1      C15            -0.4642550094       30.8381052396       -9.7691950000  MEMB      152             0.0000000000
     17678       152  CHL1      H15A           -1.5030736753       30.6909422401      -10.1345850000  MEMB      152             0.0000000000
     17679       152  CHL1      H15B            0.0998533088       29.8811024915       -9.7532950000  MEMB      152             0.0000000000
     17680       152  CHL1      C16            -0.4932458593       31.5690993295       -8.4256050000  MEMB      152             0.0000000000
     17681       152  CHL1      H16A           -1.4935779254       31.8756989593       -8.0519250000  MEMB      152             0.0000000000
     17682       152  CHL1      H16B            0.0443929193       30.9385063484       -7.6855950000  MEMB      152             0.0000000000
     17683       152  CHL1      C17             0.2629797520       32.9555733818       -8.7856650000  MEMB      152             0.0000000000
     17684       152  CHL1      H17             1.3685730894       32.8507612982       -8.7543250000  MEMB      152             0.0000000000
     17685       152  CHL1      C13             0.0141042091       33.1886225034      -10.2618850000  MEMB      152             0.0000000000
     17686       152  CHL1      C18            -1.5118197639       33.3846053012      -10.5242750000  MEMB      152             0.0000000000
     17687       152  CHL1      H18A           -2.2766227014       32.7520787208      -10.0249850000  MEMB      152             0.0000000000
     17688       152  CHL1      H18B           -1.6000175540       34.4587517716      -10.2545250000  MEMB      152             0.0000000000
     17689       152  CHL1      H18C           -1.7948427147       33.2967095498      -11.5950150000  MEMB      152             0.0000000000
     17690       152  CHL1      C12             0.9762011627       34.1232571217      -11.0133250000  MEMB      152             0.0000000000
     17691       152  CHL1      H12A            0.9261291007       35.1719147837      -10.6498650000  MEMB      152             0.0000000000
     17692       152  CHL1      H12B            2.0070761727       33.7913693965      -10.7653950000  MEMB      152             0.0000000000
     17693       152  CHL1      C11             0.7450901172       34.1299469997      -12.5906850000  MEMB      152             0.0000000000
     17694       152  CHL1      H11A           -0.2667053448       34.5446608979      -12.7871650000  MEMB      152             0.0000000000
     17695       152  CHL1      H11B            1.4657213759       34.8341296007      -13.0588150000  MEMB      152             0.0000000000
     17696       152  CHL1      C9              0.8363175067       32.6725837645      -13.1249650000  MEMB      152             0.0000000000
     17697       152  CHL1      H9              1.8592380924       32.2840201879      -12.9326950000  MEMB      152             0.0000000000
     17698       152  CHL1      C10             0.4410765801       32.4662817548      -14.6549650000  MEMB      152             0.0000000000
     17699       152  CHL1      C19            -0.9715980762       33.0217704228      -14.8685650000  MEMB      152             0.0000000000
     17700       152  CHL1      H19A           -1.3906883849       32.9023147186      -15.8905250000  MEMB      152             0.0000000000
     17701       152  CHL1      H19B           -1.7103460460       32.5138784647      -14.2123550000  MEMB      152             0.0000000000
     17702       152  CHL1      H19C           -0.9379309742       34.1273023085      -14.7636550000  MEMB      152             0.0000000000
     17703       152  CHL1      C1              1.4501392675       33.2092358478      -15.4906250000  MEMB      152             0.0000000000
     17704       152  CHL1      H1A             1.4112723125       34.3117320979      -15.3590450000  MEMB      152             0.0000000000
     17705       152  CHL1      H1B             2.5062574728       32.9574425649      -15.2549650000  MEMB      152             0.0000000000
     17706       152  CHL1      C2              1.2561600629       32.9654110168      -16.9808450000  MEMB      152             0.0000000000
     17707       152  CHL1      H2A             2.0495817232       33.4079294897      -17.6203750000  MEMB      152             0.0000000000
     17708       152  CHL1      H2B             0.2575811446       33.3822264080      -17.2326950000  MEMB      152             0.0000000000
     17709       152  CHL1      C20            -0.0933584921       34.0293603122       -7.6865750000  MEMB      152             0.0000000000
     17710       152  CHL1      H20            -1.1713312165       34.1340485605       -7.4388950000  MEMB      152             0.0000000000
     17711       152  CHL1      C21             0.2664115565       35.4568106468       -8.1167150000  MEMB      152             0.0000000000
     17712       152  CHL1      H21A            0.2162482738       36.1458977124       -7.2466750000  MEMB      152             0.0000000000
     17713       152  CHL1      H21B           -0.4399604170       35.7436547459       -8.9248550000  MEMB      152             0.0000000000
     17714       152  CHL1      H21C            1.3136810749       35.5254704751       -8.4811550000  MEMB      152             0.0000000000
     17715       152  CHL1      C22             0.6726086034       33.7036146151       -6.3617150000  MEMB      152             0.0000000000
     17716       152  CHL1      H22A            0.7066864585       32.6389728564       -6.0459650000  MEMB      152             0.0000000000
     17717       152  CHL1      H22B            1.6999086615       33.9774892849       -6.6841550000  MEMB      152             0.0000000000
     17718       152  CHL1      C23             0.1247026315       34.4941249100       -5.1233050000  MEMB      152             0.0000000000
     17719       152  CHL1      H23A            0.2990207487       35.5909586986       -5.1530250000  MEMB      152             0.0000000000
     17720       152  CHL1      H23B           -0.9813214621       34.3894771005       -5.1148950000  MEMB      152             0.0000000000
     17721       152  CHL1      C24             0.7051500107       33.8706364772       -3.7921250000  MEMB      152             0.0000000000
     17722       152  CHL1      H24A            0.3943927993       32.8084048747       -3.6950150000  MEMB      152             0.0000000000
     17723       152  CHL1      H24B            1.8099851212       33.9413711813       -3.6990750000  MEMB      152             0.0000000000
     17724       152  CHL1      C25             0.1998722793       34.6951736748       -2.5525550000  MEMB      152             0.0000000000
     17725       152  CHL1      H25             0.5103786377       35.7535621572       -2.6856750000  MEMB      152             0.0000000000
     17726       152  CHL1      C26            -1.3073478491       34.5611705095       -2.2436750000  MEMB      152             0.0000000000
     17727       152  CHL1      H26A           -1.5120292837       35.1235952459       -1.3076650000  MEMB      152             0.0000000000
     17728       152  CHL1      H26B           -1.9105290379       34.9704507949       -3.0821250000  MEMB      152             0.0000000000
     17729       152  CHL1      H26C           -1.6461846761       33.5050841888       -2.1789150000  MEMB      152             0.0000000000
     17730       152  CHL1      C27             1.0036192705       34.1802274672       -1.3698450000  MEMB      152             0.0000000000
     17731       152  CHL1      H27A            0.7103280104       34.7907927077       -0.4892150000  MEMB      152             0.0000000000
     17732       152  CHL1      H27B            0.7880971277       33.1268122413       -1.0902350000  MEMB      152             0.0000000000
     17733       152  CHL1      H27C            2.0982026530       34.3417164179       -1.4704950000  MEMB      152             0.0000000000
     17734       153  CHL1      C3             25.9111194035      -18.7386960022      -17.2954150000  MEMB      153             0.0000000000
     17735       153  CHL1      H3             26.6991529465      -17.9663578484      -17.1657750000  MEMB      153             0.0000000000
     17736       153  CHL1      O3             25.8988897965      -19.0212133978      -18.7045850000  MEMB      153             0.0000000000
     17737       153  CHL1      H3'            25.3133324163      -18.3467704822      -19.0565050000  MEMB      153             0.0000000000
     17738       153  CHL1      C4             26.1746782641      -20.1034602506      -16.5219950000  MEMB      153             0.0000000000
     17739       153  CHL1      H4A            25.4169590213      -20.8149303857      -16.9144050000  MEMB      153             0.0000000000
     17740       153  CHL1      H4B            27.1356463591      -20.5464652224      -16.8605350000  MEMB      153             0.0000000000
     17741       153  CHL1      C5             26.2286617833      -20.0266775823      -14.9629950000  MEMB      153             0.0000000000
     17742       153  CHL1      C6             27.2343539245      -20.5024387289      -14.2615550000  MEMB      153             0.0000000000
     17743       153  CHL1      H6             28.1020983312      -20.9948506766      -14.7247550000  MEMB      153             0.0000000000
     17744       153  CHL1      C7             27.3000695927      -20.3890515981      -12.7651950000  MEMB      153             0.0000000000
     17745       153  CHL1      H7A            27.8460595942      -21.2025339711      -12.2413050000  MEMB      153             0.0000000000
     17746       153  CHL1      H7B            27.9358128495      -19.5071013081      -12.5364650000  MEMB      153             0.0000000000
     17747       153  CHL1      C8             25.9021257357      -20.1346563955      -12.1087050000  MEMB      153             0.0000000000
     17748       153  CHL1      H8             25.3367897921      -21.0859231544      -12.0096550000  MEMB      153             0.0000000000
     17749       153  CHL1      C14            26.1191203668      -19.5218775406      -10.6683450000  MEMB      153             0.0000000000
     17750       153  CHL1      H14            26.5041942684      -18.4973078576      -10.8588650000  MEMB      153             0.0000000000
     17751       153  CHL1      C15            27.1104737126      -20.2258218522       -9.7790850000  MEMB      153             0.0000000000
     17752       153  CHL1      H15A           27.1024616592      -21.3205972319       -9.9681250000  MEMB      153             0.0000000000
     17753       153  CHL1      H15B           28.1393410128      -19.8754856471      -10.0093050000  MEMB      153             0.0000000000
     17754       153  CHL1      C16            26.6174687373      -19.9010268952       -8.3614250000  MEMB      153             0.0000000000
     17755       153  CHL1      H16A           26.4757924319      -20.8281469811       -7.7658650000  MEMB      153             0.0000000000
     17756       153  CHL1      H16B           27.4096257035      -19.2477802486       -7.9370650000  MEMB      153             0.0000000000
     17757       153  CHL1      C17            25.3188841972      -19.0221815276       -8.5319150000  MEMB      153             0.0000000000
     17758       153  CHL1      H17            25.5778649172      -17.9546709601       -8.6982850000  MEMB      153             0.0000000000
     17759       153  CHL1      C13            24.7948688829      -19.5064307420       -9.8575150000  MEMB      153             0.0000000000
     17760       153  CHL1      C18            24.2070216879      -20.9506181281       -9.6953450000  MEMB      153             0.0000000000
     17761       153  CHL1      H18A           25.0251456190      -21.6051764855       -9.3258150000  MEMB      153             0.0000000000
     17762       153  CHL1      H18B           23.3766695439      -20.9677109867       -8.9574150000  MEMB      153             0.0000000000
     17763       153  CHL1      H18C           23.7932215572      -21.3469412042      -10.6471950000  MEMB      153             0.0000000000
     17764       153  CHL1      C12            23.8578366798      -18.5379030005      -10.6217950000  MEMB      153             0.0000000000
     17765       153  CHL1      H12A           22.8775592097      -18.5220507428      -10.0991850000  MEMB      153             0.0000000000
     17766       153  CHL1      H12B           24.2780793712      -17.5094934710      -10.6111750000  MEMB      153             0.0000000000
     17767       153  CHL1      C11            23.6638813599      -18.9381845033      -12.1420650000  MEMB      153             0.0000000000
     17768       153  CHL1      H11A           23.0486829653      -19.8625940530      -12.1786050000  MEMB      153             0.0000000000
     17769       153  CHL1      H11B           23.0665415455      -18.1477455048      -12.6447650000  MEMB      153             0.0000000000
     17770       153  CHL1      C9             25.0519738476      -19.1599550844      -12.8795650000  MEMB      153             0.0000000000
     17771       153  CHL1      H9             25.6296961642      -18.2196870329      -12.7513150000  MEMB      153             0.0000000000
     17772       153  CHL1      C10            24.9113506792      -19.4020408688      -14.4286650000  MEMB      153             0.0000000000
     17773       153  CHL1      C19            23.6872923007      -20.3410322726      -14.6323950000  MEMB      153             0.0000000000
     17774       153  CHL1      H19A           23.5552892119      -20.4819161903      -15.7264950000  MEMB      153             0.0000000000
     17775       153  CHL1      H19B           23.8851062259      -21.3093985584      -14.1250050000  MEMB      153             0.0000000000
     17776       153  CHL1      H19C           22.7109130763      -19.9385829661      -14.2873650000  MEMB      153             0.0000000000
     17777       153  CHL1      C1             24.5974281367      -18.0768544936      -15.2176050000  MEMB      153             0.0000000000
     17778       153  CHL1      H1A            23.5935925046      -17.7202180257      -14.9022650000  MEMB      153             0.0000000000
     17779       153  CHL1      H1B            25.3825130928      -17.3717971457      -14.8699650000  MEMB      153             0.0000000000
     17780       153  CHL1      C2             24.6199034853      -18.0801309558      -16.7810750000  MEMB      153             0.0000000000
     17781       153  CHL1      H2A            24.5292012986      -17.0819231959      -17.2603250000  MEMB      153             0.0000000000
     17782       153  CHL1      H2B            23.8570420142      -18.8030570059      -17.1412750000  MEMB      153             0.0000000000
     17783       153  CHL1      C20            24.5480183488      -19.1424449238       -7.1577350000  MEMB      153             0.0000000000
     17784       153  CHL1      H20            24.4263397358      -20.2355221768       -7.0005750000  MEMB      153             0.0000000000
     17785       153  CHL1      C21            23.2209792350      -18.4410085181       -7.0567250000  MEMB      153             0.0000000000
     17786       153  CHL1      H21A           23.3139629228      -17.3349704099       -7.0080450000  MEMB      153             0.0000000000
     17787       153  CHL1      H21B           22.7788381269      -18.6884821591       -6.0680050000  MEMB      153             0.0000000000
     17788       153  CHL1      H21C           22.5932947533      -18.7876366675       -7.9053650000  MEMB      153             0.0000000000
     17789       153  CHL1      C22            25.4883784862      -18.6645855454       -6.0633950000  MEMB      153             0.0000000000
     17790       153  CHL1      H22A           26.3428615116      -19.3400034991       -5.8443250000  MEMB      153             0.0000000000
     17791       153  CHL1      H22B           25.9445285989      -17.7212502118       -6.4326750000  MEMB      153             0.0000000000
     17792       153  CHL1      C23            24.8908770835      -18.2477409194       -4.7357950000  MEMB      153             0.0000000000
     17793       153  CHL1      H23A           24.2400082098      -17.3539065796       -4.8441650000  MEMB      153             0.0000000000
     17794       153  CHL1      H23B           24.3209000427      -19.1412180839       -4.4024150000  MEMB      153             0.0000000000
     17795       153  CHL1      C24            25.9507916571      -17.7189233679       -3.8115650000  MEMB      153             0.0000000000
     17796       153  CHL1      H24A           26.6550953663      -18.5316092811       -3.5326150000  MEMB      153             0.0000000000
     17797       153  CHL1      H24B           26.5726573390      -16.9772057126       -4.3569650000  MEMB      153             0.0000000000
     17798       153  CHL1      C25            25.4126745161      -17.2623163773       -2.4585150000  MEMB      153             0.0000000000
     17799       153  CHL1      H25            24.5276060743      -16.5951129230       -2.5348250000  MEMB      153             0.0000000000
     17800       153  CHL1      C26            25.2545230597      -18.4800546646       -1.5085150000  MEMB      153             0.0000000000
     17801       153  CHL1      H26A           26.2042303606      -19.0529827483       -1.4443150000  MEMB      153             0.0000000000
     17802       153  CHL1      H26B           25.0656283272      -18.1045476856       -0.4801050000  MEMB      153             0.0000000000
     17803       153  CHL1      H26C           24.4436364003      -19.1058800221       -1.9387850000  MEMB      153             0.0000000000
     17804       153  CHL1      C27            26.4701080772      -16.3384839943       -1.7935150000  MEMB      153             0.0000000000
     17805       153  CHL1      H27A           26.6293611969      -15.4449809517       -2.4343050000  MEMB      153             0.0000000000
     17806       153  CHL1      H27B           26.3053697735      -16.0550002165       -0.7319950000  MEMB      153             0.0000000000
     17807       153  CHL1      H27C           27.4412238615      -16.8751217082       -1.7361850000  MEMB      153             0.0000000000
     17808       154  CHL1      C3             15.2251437312       28.4232129989      -17.3725600000  MEMB      154             0.0000000000
     17809       154  CHL1      H3             15.3776659861       27.3338669292      -17.2164000000  MEMB      154             0.0000000000
     17810       154  CHL1      O3             14.7577522688       28.7251010011      -18.6274400000  MEMB      154             0.0000000000
     17811       154  CHL1      H3'            14.1128408011       28.0948731580      -18.9568400000  MEMB      154             0.0000000000
     17812       154  CHL1      C4             14.1946148620       28.9397199833      -16.3213300000  MEMB      154             0.0000000000
     17813       154  CHL1      H4A            13.9437845783       30.0151166452      -16.4435400000  MEMB      154             0.0000000000
     17814       154  CHL1      H4B            13.2565159684       28.4267941092      -16.6233400000  MEMB      154             0.0000000000
     17815       154  CHL1      C5             14.6535269415       28.5554878413      -14.9110500000  MEMB      154             0.0000000000
     17816       154  CHL1      C6             13.9601513161       27.7470607350      -14.0584600000  MEMB      154             0.0000000000
     17817       154  CHL1      H6             13.0286250369       27.3005961221      -14.4365000000  MEMB      154             0.0000000000
     17818       154  CHL1      C7             14.4667501522       27.2741125085      -12.7483200000  MEMB      154             0.0000000000
     17819       154  CHL1      H7A            13.5642503448       27.2392822087      -12.1013300000  MEMB      154             0.0000000000
     17820       154  CHL1      H7B            15.0022548648       26.3073809579      -12.8622600000  MEMB      154             0.0000000000
     17821       154  CHL1      C8             15.4616291124       28.2780829555      -12.2561300000  MEMB      154             0.0000000000
     17822       154  CHL1      H8             14.9693523715       29.2559792748      -12.0671500000  MEMB      154             0.0000000000
     17823       154  CHL1      C14            16.1289405581       27.7623798134      -11.0079500000  MEMB      154             0.0000000000
     17824       154  CHL1      H14            16.6456461744       26.8690794304      -11.4194800000  MEMB      154             0.0000000000
     17825       154  CHL1      C15            15.3062916136       27.1473343199       -9.9054900000  MEMB      154             0.0000000000
     17826       154  CHL1      H15A           14.3689913540       27.7332762129       -9.7938600000  MEMB      154             0.0000000000
     17827       154  CHL1      H15B           15.0268043166       26.1024716343      -10.1594200000  MEMB      154             0.0000000000
     17828       154  CHL1      C16            16.2385301409       27.2707407009       -8.6567600000  MEMB      154             0.0000000000
     17829       154  CHL1      H16A           15.8545932854       27.8233662221       -7.7727300000  MEMB      154             0.0000000000
     17830       154  CHL1      H16B           16.5562966830       26.2377222670       -8.3994100000  MEMB      154             0.0000000000
     17831       154  CHL1      C17            17.5592906045       28.0203063598       -9.1235100000  MEMB      154             0.0000000000
     17832       154  CHL1      H17            18.2235066474       27.2056516051       -9.4833400000  MEMB      154             0.0000000000
     17833       154  CHL1      C13            17.1691515009       28.7332549880      -10.4051800000  MEMB      154             0.0000000000
     17834       154  CHL1      C18            16.5209733657       30.1031509065      -10.0684700000  MEMB      154             0.0000000000
     17835       154  CHL1      H18A           15.6380922327       30.0007466048       -9.4018800000  MEMB      154             0.0000000000
     17836       154  CHL1      H18B           17.3535085853       30.6724914838       -9.6025700000  MEMB      154             0.0000000000
     17837       154  CHL1      H18C           16.1342969637       30.7233827039      -10.9052000000  MEMB      154             0.0000000000
     17838       154  CHL1      C12            18.3386856875       28.8964581044      -11.3549000000  MEMB      154             0.0000000000
     17839       154  CHL1      H12A           19.0227553409       29.6574883576      -10.9222400000  MEMB      154             0.0000000000
     17840       154  CHL1      H12B           18.9435286110       27.9656643141      -11.4008900000  MEMB      154             0.0000000000
     17841       154  CHL1      C11            17.8123860598       29.3742578474      -12.7360200000  MEMB      154             0.0000000000
     17842       154  CHL1      H11A           17.6280094234       30.4628906289      -12.6126200000  MEMB      154             0.0000000000
     17843       154  CHL1      H11B           18.6629829666       29.2158299316      -13.4329400000  MEMB      154             0.0000000000
     17844       154  CHL1      C9             16.6145047481       28.5311221798      -13.2993200000  MEMB      154             0.0000000000
     17845       154  CHL1      H9             17.0223852665       27.5500107037      -13.6239500000  MEMB      154             0.0000000000
     17846       154  CHL1      C10            16.0005233424       29.0753814654      -14.5869500000  MEMB      154             0.0000000000
     17847       154  CHL1      C19            15.7548410437       30.5556340057      -14.4827500000  MEMB      154             0.0000000000
     17848       154  CHL1      H19A           15.4170400842       31.0226410756      -15.4325500000  MEMB      154             0.0000000000
     17849       154  CHL1      H19B           14.8730781313       30.7990267812      -13.8522100000  MEMB      154             0.0000000000
     17850       154  CHL1      H19C           16.7547054531       31.0187731279      -14.3409500000  MEMB      154             0.0000000000
     17851       154  CHL1      C1             17.0845717611       28.8030701018      -15.7763300000  MEMB      154             0.0000000000
     17852       154  CHL1      H1A            17.9632614915       29.4731438818      -15.6612500000  MEMB      154             0.0000000000
     17853       154  CHL1      H1B            17.2707761811       27.7080175924      -15.7986500000  MEMB      154             0.0000000000
     17854       154  CHL1      C2             16.4624170272       29.2049954940      -17.1372900000  MEMB      154             0.0000000000
     17855       154  CHL1      H2A            17.1614457575       28.9536964424      -17.9634500000  MEMB      154             0.0000000000
     17856       154  CHL1      H2B            16.2590192693       30.2881298814      -17.2779000000  MEMB      154             0.0000000000
     17857       154  CHL1      C20            18.3203668267       28.7502307846       -7.9587300000  MEMB      154             0.0000000000
     17858       154  CHL1      H20            17.6791848066       29.5860534938       -7.6057200000  MEMB      154             0.0000000000
     17859       154  CHL1      C21            19.6208039887       29.3056617380       -8.4181200000  MEMB      154             0.0000000000
     17860       154  CHL1      H21A           20.1965786071       29.7440635712       -7.5751400000  MEMB      154             0.0000000000
     17861       154  CHL1      H21B           19.5048913978       30.1816749586       -9.0915300000  MEMB      154             0.0000000000
     17862       154  CHL1      H21C           20.1850023261       28.5727943240       -9.0336700000  MEMB      154             0.0000000000
     17863       154  CHL1      C22            18.5549814706       27.9052411008       -6.6864600000  MEMB      154             0.0000000000
     17864       154  CHL1      H22A           19.1064969136       28.5040275146       -5.9304100000  MEMB      154             0.0000000000
     17865       154  CHL1      H22B           17.6274541308       27.5045709666       -6.2244300000  MEMB      154             0.0000000000
     17866       154  CHL1      C23            19.5491731465       26.7099226851       -6.8984600000  MEMB      154             0.0000000000
     17867       154  CHL1      H23A           19.2216406399       25.9842362271       -7.6733300000  MEMB      154             0.0000000000
     17868       154  CHL1      H23B           20.5591848431       27.0900934388       -7.1624500000  MEMB      154             0.0000000000
     17869       154  CHL1      C24            19.7212136062       25.8047757375       -5.6857200000  MEMB      154             0.0000000000
     17870       154  CHL1      H24A           20.0061880958       26.3112365126       -4.7388200000  MEMB      154             0.0000000000
     17871       154  CHL1      H24B           18.8042131195       25.2122417895       -5.4799900000  MEMB      154             0.0000000000
     17872       154  CHL1      C25            20.8831529249       24.8296031129       -5.8249300000  MEMB      154             0.0000000000
     17873       154  CHL1      H25            21.8189224970       25.3915062344       -6.0320900000  MEMB      154             0.0000000000
     17874       154  CHL1      C26            21.0914734092       23.9806747522       -4.5538600000  MEMB      154             0.0000000000
     17875       154  CHL1      H26A           21.9643889078       23.2966495581       -4.6206100000  MEMB      154             0.0000000000
     17876       154  CHL1      H26B           21.4107959654       24.7574419552       -3.8265400000  MEMB      154             0.0000000000
     17877       154  CHL1      H26C           20.2433980232       23.3586440978       -4.1958300000  MEMB      154             0.0000000000
     17878       154  CHL1      C27            20.6034951642       23.7772632458       -6.8624100000  MEMB      154             0.0000000000
     17879       154  CHL1      H27A           19.5748608600       23.3819466483       -6.7211700000  MEMB      154             0.0000000000
     17880       154  CHL1      H27B           20.7074650915       24.1809416951       -7.8922400000  MEMB      154             0.0000000000
     17881       154  CHL1      H27C           21.2770980463       22.8994607236       -6.7621700000  MEMB      154             0.0000000000
     17882       155  CHL1      C3             32.1063762881        4.4486084194      -17.3064000000  MEMB      155             0.0000000000
     17883       155  CHL1      H3             32.8481412448        5.1479281805      -16.8647500000  MEMB      155             0.0000000000
     17884       155  CHL1      O3             32.0669479119        4.7031828206      -18.6936000000  MEMB      155             0.0000000000
     17885       155  CHL1      H3'            32.9606185996        4.7791237748      -19.0359400000  MEMB      155             0.0000000000
     17886       155  CHL1      C4             32.5504918175        3.0281639300      -16.8809100000  MEMB      155             0.0000000000
     17887       155  CHL1      H4A            31.8843653525        2.3379972435      -17.4415100000  MEMB      155             0.0000000000
     17888       155  CHL1      H4B            33.5121197486        2.7889568499      -17.3832700000  MEMB      155             0.0000000000
     17889       155  CHL1      C5             32.5943343689        2.8336469701      -15.4235400000  MEMB      155             0.0000000000
     17890       155  CHL1      C6             33.7458959618        2.5493151627      -14.8276400000  MEMB      155             0.0000000000
     17891       155  CHL1      H6             34.6632724510        2.4109147350      -15.4186300000  MEMB      155             0.0000000000
     17892       155  CHL1      C7             33.8469075061        2.4933524313      -13.3049700000  MEMB      155             0.0000000000
     17893       155  CHL1      H7A            34.4846835841        1.6986645773      -12.8622100000  MEMB      155             0.0000000000
     17894       155  CHL1      H7B            34.2044341918        3.4182500052      -12.8039200000  MEMB      155             0.0000000000
     17895       155  CHL1      C8             32.5207099475        2.3444035981      -12.5554000000  MEMB      155             0.0000000000
     17896       155  CHL1      H8             32.0462596579        1.3679690846      -12.7915800000  MEMB      155             0.0000000000
     17897       155  CHL1      C14            32.6735217566        2.6707322973      -11.1054500000  MEMB      155             0.0000000000
     17898       155  CHL1      H14            33.0168722539        3.7211995127      -10.9917000000  MEMB      155             0.0000000000
     17899       155  CHL1      C15            33.7393095544        1.9435256677      -10.3348100000  MEMB      155             0.0000000000
     17900       155  CHL1      H15A           33.6392530542        0.8832880105      -10.6513600000  MEMB      155             0.0000000000
     17901       155  CHL1      H15B           34.7593563912        2.2812178453      -10.6172800000  MEMB      155             0.0000000000
     17902       155  CHL1      C16            33.3497315864        2.2600061836       -8.9191400000  MEMB      155             0.0000000000
     17903       155  CHL1      H16A           33.3111012588        1.3121575753       -8.3408800000  MEMB      155             0.0000000000
     17904       155  CHL1      H16B           34.0453991515        3.0218154461       -8.5068300000  MEMB      155             0.0000000000
     17905       155  CHL1      C17            31.8806776462        2.8716477401       -8.8954300000  MEMB      155             0.0000000000
     17906       155  CHL1      H17            31.8763605510        3.9819604201       -8.9343000000  MEMB      155             0.0000000000
     17907       155  CHL1      C13            31.3874333696        2.5101837939      -10.3034200000  MEMB      155             0.0000000000
     17908       155  CHL1      C18            30.7828960582        1.0512998143      -10.3196700000  MEMB      155             0.0000000000
     17909       155  CHL1      H18A           30.0698034248        0.9368648497       -9.4754400000  MEMB      155             0.0000000000
     17910       155  CHL1      H18B           30.2489672508        0.7512523182      -11.2466100000  MEMB      155             0.0000000000
     17911       155  CHL1      H18C           31.5969401979        0.3461988820      -10.0467600000  MEMB      155             0.0000000000
     17912       155  CHL1      C12            30.3719073377        3.5717193945      -10.8907600000  MEMB      155             0.0000000000
     17913       155  CHL1      H12A           29.4490565636        3.3068716814      -10.3317200000  MEMB      155             0.0000000000
     17914       155  CHL1      H12B           30.6632523957        4.5893176326      -10.5532200000  MEMB      155             0.0000000000
     17915       155  CHL1      C11            30.1461445351        3.2518057982      -12.3273300000  MEMB      155             0.0000000000
     17916       155  CHL1      H11A           29.6493781790        2.2935772556      -12.5906400000  MEMB      155             0.0000000000
     17917       155  CHL1      H11B           29.5981311330        4.0781325496      -12.8285100000  MEMB      155             0.0000000000
     17918       155  CHL1      C9             31.5069440560        3.2886870179      -13.1876600000  MEMB      155             0.0000000000
     17919       155  CHL1      H9             31.9197587968        4.2988035743      -12.9789100000  MEMB      155             0.0000000000
     17920       155  CHL1      C10            31.3099362326        3.2647190080      -14.7195800000  MEMB      155             0.0000000000
     17921       155  CHL1      C19            30.3419060477        2.1006061283      -14.9584800000  MEMB      155             0.0000000000
     17922       155  CHL1      H19A           30.7396500830        1.1527750750      -14.5369000000  MEMB      155             0.0000000000
     17923       155  CHL1      H19B           29.2986560647        2.2407133828      -14.6030600000  MEMB      155             0.0000000000
     17924       155  CHL1      H19C           30.2494555860        1.8840357088      -16.0442400000  MEMB      155             0.0000000000
     17925       155  CHL1      C1             30.8025517073        4.6237946131      -15.1977200000  MEMB      155             0.0000000000
     17926       155  CHL1      H1A            29.7309546845        4.8050204259      -14.9671500000  MEMB      155             0.0000000000
     17927       155  CHL1      H1B            31.4734507159        5.4236186045      -14.8176000000  MEMB      155             0.0000000000
     17928       155  CHL1      C2             30.7631596682        4.6672840343      -16.7214100000  MEMB      155             0.0000000000
     17929       155  CHL1      H2A            30.3501722413        5.6419555052      -17.0587100000  MEMB      155             0.0000000000
     17930       155  CHL1      H2B            30.0098288918        3.9397896922      -17.0923100000  MEMB      155             0.0000000000
     17931       155  CHL1      C20            31.0747331894        2.4184672889       -7.6707200000  MEMB      155             0.0000000000
     17932       155  CHL1      H20            30.9028744975        1.3246830885       -7.5789500000  MEMB      155             0.0000000000
     17933       155  CHL1      C21            29.6624858616        3.0818205200       -7.6515900000  MEMB      155             0.0000000000
     17934       155  CHL1      H21A           29.0182827543        2.7110376141       -8.4773400000  MEMB      155             0.0000000000
     17935       155  CHL1      H21B           29.7857274819        4.1847907339       -7.6008300000  MEMB      155             0.0000000000
     17936       155  CHL1      H21C           29.1135804121        2.8298168808       -6.7191100000  MEMB      155             0.0000000000
     17937       155  CHL1      C22            31.7987373852        2.8797813512       -6.3447500000  MEMB      155             0.0000000000
     17938       155  CHL1      H22A           32.8554183337        2.5656759341       -6.4829000000  MEMB      155             0.0000000000
     17939       155  CHL1      H22B           31.9646402222        3.9769896999       -6.2907000000  MEMB      155             0.0000000000
     17940       155  CHL1      C23            31.3047534831        2.3224524079       -5.0181700000  MEMB      155             0.0000000000
     17941       155  CHL1      H23A           30.4029815692        2.8802681905       -4.6865300000  MEMB      155             0.0000000000
     17942       155  CHL1      H23B           31.0694729832        1.2685578086       -5.2794600000  MEMB      155             0.0000000000
     17943       155  CHL1      C24            32.4372368179        2.3516521590       -3.9472000000  MEMB      155             0.0000000000
     17944       155  CHL1      H24A           33.3346374794        1.8274338562       -4.3398500000  MEMB      155             0.0000000000
     17945       155  CHL1      H24B           32.6093307584        3.4429665500       -3.8299800000  MEMB      155             0.0000000000
     17946       155  CHL1      C25            32.0393117948        1.8176729197       -2.5279000000  MEMB      155             0.0000000000
     17947       155  CHL1      H25            33.0194915030        1.8235926895       -2.0049000000  MEMB      155             0.0000000000
     17948       155  CHL1      C26            31.0705155054        2.8482355246       -1.8776800000  MEMB      155             0.0000000000
     17949       155  CHL1      H26A           30.9008694654        2.5196009271       -0.8300400000  MEMB      155             0.0000000000
     17950       155  CHL1      H26B           31.6189956851        3.8106801030       -1.9625600000  MEMB      155             0.0000000000
     17951       155  CHL1      H26C           30.1196122875        2.8628686990       -2.4520300000  MEMB      155             0.0000000000
     17952       155  CHL1      C27            31.2628458271        0.4885673896       -2.5804200000  MEMB      155             0.0000000000
     17953       155  CHL1      H27A           31.6210790621       -0.1269503424       -1.7277000000  MEMB      155             0.0000000000
     17954       155  CHL1      H27B           30.1606662618        0.6281298241       -2.5734400000  MEMB      155             0.0000000000
     17955       155  CHL1      H27C           31.5049751697       -0.1215450984       -3.4767800000  MEMB      155             0.0000000000
     17956       156  CHL1      C3            -28.1465049259      -16.3983561163      -17.2954400000  MEMB      156             0.0000000000
     17957       156  CHL1      H3            -29.1925117700      -16.6742258762      -17.0422700000  MEMB      156             0.0000000000
     17958       156  CHL1      O3            -28.0761866741      -16.3279618837      -18.7045600000  MEMB      156             0.0000000000
     17959       156  CHL1      H3'           -28.2058642977      -17.2046375558      -19.0736600000  MEMB      156             0.0000000000
     17960       156  CHL1      C4            -28.0389028371      -14.9744548289      -16.7339100000  MEMB      156             0.0000000000
     17961       156  CHL1      H4A           -27.0520706909      -14.6401815200      -17.1195900000  MEMB      156             0.0000000000
     17962       156  CHL1      H4B           -28.7763097968      -14.3206344596      -17.2468000000  MEMB      156             0.0000000000
     17963       156  CHL1      C5            -28.0833894679      -14.8407864250      -15.2233800000  MEMB      156             0.0000000000
     17964       156  CHL1      C6            -28.9413481781      -13.9812575877      -14.6662200000  MEMB      156             0.0000000000
     17965       156  CHL1      H6            -29.6613408207      -13.3897399195      -15.2507800000  MEMB      156             0.0000000000
     17966       156  CHL1      C7            -29.0517259087      -13.9423703458      -13.1022800000  MEMB      156             0.0000000000
     17967       156  CHL1      H7A           -28.9484500450      -12.8741830029      -12.8148100000  MEMB      156             0.0000000000
     17968       156  CHL1      H7B           -30.0565808854      -14.3236864286      -12.8208700000  MEMB      156             0.0000000000
     17969       156  CHL1      C8            -27.8762527663      -14.5907123573      -12.4164400000  MEMB      156             0.0000000000
     17970       156  CHL1      H8            -27.0941570116      -13.8313243518      -12.6308700000  MEMB      156             0.0000000000
     17971       156  CHL1      C14           -28.2022997568      -14.6164804946      -10.9141300000  MEMB      156             0.0000000000
     17972       156  CHL1      H14           -29.1449968687      -15.1973003858      -10.8230100000  MEMB      156             0.0000000000
     17973       156  CHL1      C15           -28.4765323210      -13.2822743617      -10.2762800000  MEMB      156             0.0000000000
     17974       156  CHL1      H15A          -27.6147414395      -12.6548007893      -10.5891700000  MEMB      156             0.0000000000
     17975       156  CHL1      H15B          -29.4165793925      -12.8026471793      -10.6235500000  MEMB      156             0.0000000000
     17976       156  CHL1      C16           -28.4378500973      -13.6859497057       -8.8028100000  MEMB      156             0.0000000000
     17977       156  CHL1      H16A          -27.9513351726      -13.0030587284       -8.0739200000  MEMB      156             0.0000000000
     17978       156  CHL1      H16B          -29.4836182171      -13.8080450152       -8.4481400000  MEMB      156             0.0000000000
     17979       156  CHL1      C17           -27.7771582969      -15.1041218121       -8.7655300000  MEMB      156             0.0000000000
     17980       156  CHL1      H17           -28.5887644133      -15.8511526839       -8.6329600000  MEMB      156             0.0000000000
     17981       156  CHL1      C13           -27.1465145967      -15.3620175501      -10.1055000000  MEMB      156             0.0000000000
     17982       156  CHL1      C18           -25.7964430541      -14.6295076034      -10.2707200000  MEMB      156             0.0000000000
     17983       156  CHL1      H18A          -25.7702205238      -13.5815876013       -9.9026200000  MEMB      156             0.0000000000
     17984       156  CHL1      H18B          -24.9115790117      -15.0749849208       -9.7678200000  MEMB      156             0.0000000000
     17985       156  CHL1      H18C          -25.4993493861      -14.4807078539      -11.3308700000  MEMB      156             0.0000000000
     17986       156  CHL1      C12           -27.1669725938      -16.7889884438      -10.6225600000  MEMB      156             0.0000000000
     17987       156  CHL1      H12A          -26.4236523778      -17.3869681182      -10.0531500000  MEMB      156             0.0000000000
     17988       156  CHL1      H12B          -28.1309071577      -17.3253269508      -10.4902900000  MEMB      156             0.0000000000
     17989       156  CHL1      C11           -26.6930717538      -16.8490823236      -12.0697200000  MEMB      156             0.0000000000
     17990       156  CHL1      H11A          -25.6908261593      -16.3887680432      -12.2036200000  MEMB      156             0.0000000000
     17991       156  CHL1      H11B          -26.7331350296      -17.8933752797      -12.4467600000  MEMB      156             0.0000000000
     17992       156  CHL1      C9            -27.6062105261      -15.9820935031      -12.9260100000  MEMB      156             0.0000000000
     17993       156  CHL1      H9            -28.6300576741      -16.4073875795      -12.8540600000  MEMB      156             0.0000000000
     17994       156  CHL1      C10           -27.1810065708      -15.9031679173      -14.4708000000  MEMB      156             0.0000000000
     17995       156  CHL1      C19           -25.7220680475      -15.4278872690      -14.6928500000  MEMB      156             0.0000000000
     17996       156  CHL1      H19A          -25.0174609135      -16.1022424584      -14.1607800000  MEMB      156             0.0000000000
     17997       156  CHL1      H19B          -25.4567242192      -15.4207824784      -15.7716800000  MEMB      156             0.0000000000
     17998       156  CHL1      H19C          -25.4391636451      -14.4530778146      -14.2411400000  MEMB      156             0.0000000000
     17999       156  CHL1      C1            -27.3160324445      -17.3063150241      -15.1565900000  MEMB      156             0.0000000000
     18000       156  CHL1      H1A           -26.5305800784      -17.9735559713      -14.7416400000  MEMB      156             0.0000000000
     18001       156  CHL1      H1B           -28.3165923075      -17.6998240105      -14.8767100000  MEMB      156             0.0000000000
     18002       156  CHL1      C2            -27.1741659597      -17.3784084515      -16.6775000000  MEMB      156             0.0000000000
     18003       156  CHL1      H2A           -27.4850658719      -18.3786804790      -17.0478000000  MEMB      156             0.0000000000
     18004       156  CHL1      H2B           -26.1099620325      -17.2356941821      -16.9628700000  MEMB      156             0.0000000000
     18005       156  CHL1      C20           -26.9256342604      -15.3156341790       -7.4624100000  MEMB      156             0.0000000000
     18006       156  CHL1      H20           -26.3612988886      -14.3586560042       -7.4581900000  MEMB      156             0.0000000000
     18007       156  CHL1      C21           -26.0813717753      -16.5522456131       -7.4411800000  MEMB      156             0.0000000000
     18008       156  CHL1      H21A          -26.8063346053      -17.3635713449       -7.6658700000  MEMB      156             0.0000000000
     18009       156  CHL1      H21B          -25.5614405848      -16.6057730839       -6.4608100000  MEMB      156             0.0000000000
     18010       156  CHL1      H21C          -25.2185676403      -16.5640718028       -8.1410100000  MEMB      156             0.0000000000
     18011       156  CHL1      C22           -27.8835540745      -15.1347125131       -6.1959600000  MEMB      156             0.0000000000
     18012       156  CHL1      H22A          -28.3966424972      -14.1506930649       -6.2486300000  MEMB      156             0.0000000000
     18013       156  CHL1      H22B          -28.7070491560      -15.8729569345       -6.3016700000  MEMB      156             0.0000000000
     18014       156  CHL1      C23           -27.1647267212      -15.2486274503       -4.8448700000  MEMB      156             0.0000000000
     18015       156  CHL1      H23A          -26.9731287242      -16.3194744325       -4.6192900000  MEMB      156             0.0000000000
     18016       156  CHL1      H23B          -26.1852482953      -14.7250068856       -4.8726500000  MEMB      156             0.0000000000
     18017       156  CHL1      C24           -28.0984551848      -14.6884853985       -3.7288100000  MEMB      156             0.0000000000
     18018       156  CHL1      H24A          -28.3601342674      -13.6254265641       -3.9178400000  MEMB      156             0.0000000000
     18019       156  CHL1      H24B          -29.0456701553      -15.2449018585       -3.8946500000  MEMB      156             0.0000000000
     18020       156  CHL1      C25           -27.4422741531      -14.9052519633       -2.3567000000  MEMB      156             0.0000000000
     18021       156  CHL1      H25           -26.3572068416      -14.6668785590       -2.3685200000  MEMB      156             0.0000000000
     18022       156  CHL1      C26           -28.2198022990      -14.0943066625       -1.2904500000  MEMB      156             0.0000000000
     18023       156  CHL1      H26A          -27.9078827996      -14.4112320478       -0.2723200000  MEMB      156             0.0000000000
     18024       156  CHL1      H26B          -28.0560042192      -12.9963246360       -1.3343200000  MEMB      156             0.0000000000
     18025       156  CHL1      H26C          -29.2695087996      -14.4511302607       -1.3620100000  MEMB      156             0.0000000000
     18026       156  CHL1      C27           -27.3073905118      -16.3519955625       -1.8982300000  MEMB      156             0.0000000000
     18027       156  CHL1      H27A          -27.1786274511      -16.4353645730       -0.7978700000  MEMB      156             0.0000000000
     18028       156  CHL1      H27B          -28.2356783949      -16.8154698627       -2.2954600000  MEMB      156             0.0000000000
     18029       156  CHL1      H27C          -26.4443679059      -16.9133550193       -2.3158300000  MEMB      156             0.0000000000
     18030       157  OSM       N              25.8906898835       19.7246573333      -21.7175955135  MEMB      157             0.0000000000
     18031       157  OSM       C15            27.1973169954       20.3634663172      -21.3300409249  MEMB      157             0.0000000000
     18032       157  OSM       H15A           27.0426190624       20.8211452053      -20.3641224053  MEMB      157             0.0000000000
     18033       157  OSM       H15B           27.2597628449       21.0584138335      -22.1543882112  MEMB      157             0.0000000000
     18034       157  OSM       H15C           27.8908579070       19.5356569405      -21.3415603821  MEMB      157             0.0000000000
     18035       157  OSM       C14            24.8599826351       20.7445537243      -21.5027070161  MEMB      157             0.0000000000
     18036       157  OSM       H14A           23.9107748360       20.4012271452      -21.8868056847  MEMB      157             0.0000000000
     18037       157  OSM       H14B           25.1369088889       21.6751813949      -21.9756169661  MEMB      157             0.0000000000
     18038       157  OSM       H14C           24.7658642257       21.0069616033      -20.4593068526  MEMB      157             0.0000000000
     18039       157  OSM       C13            25.9401732450       19.2494249443      -23.1746990651  MEMB      157             0.0000000000
     18040       157  OSM       H13A           26.0529691079       20.0962004113      -23.8354926747  MEMB      157             0.0000000000
     18041       157  OSM       H13B           25.1409125158       18.5740959877      -23.4421184515  MEMB      157             0.0000000000
     18042       157  OSM       H13C           26.8360320383       18.6486976591      -23.2291398108  MEMB      157             0.0000000000
     18043       157  OSM       C12            25.5181332797       18.5445219143      -20.7251261854  MEMB      157             0.0000000000
     18044       157  OSM       H12A           24.5574284461       18.2022252991      -21.0804842115  MEMB      157             0.0000000000
     18045       157  OSM       H12B           25.5419030621       18.9736882306      -19.7343430791  MEMB      157             0.0000000000
     18046       157  OSM       C11            26.3712030287       17.2185151563      -20.7893709786  MEMB      157             0.0000000000
     18047       157  OSM       H11A           26.3048522348       16.8528635168      -21.8363749891  MEMB      157             0.0000000000
     18048       157  OSM       H11B           25.9603924230       16.5549812874      -19.9986254515  MEMB      157             0.0000000000
     18049       157  OSM       P              28.8824925095       16.3964820004      -20.4359177175  MEMB      157             0.0000000000
     18050       157  OSM       O13            28.4217139245       15.1121486436      -21.0818448029  MEMB      157             0.0000000000
     18051       157  OSM       O14            30.2416796329       16.9032009612      -20.8124863215  MEMB      157             0.0000000000
     18052       157  OSM       O11            29.0006113410       16.0743860780      -18.9027550490  MEMB      157             0.0000000000
     18053       157  OSM       O12            27.7508335209       17.4879327265      -20.5274564221  MEMB      157             0.0000000000
     18054       157  OSM       C1S            29.2129578988       17.1441303605      -17.9846343381  MEMB      157             0.0000000000
     18055       157  OSM       H1S            28.4136805958       17.9157979705      -17.9821948046  MEMB      157             0.0000000000
     18056       157  OSM       H1T            30.1345274344       17.6980532857      -18.2642771843  MEMB      157             0.0000000000
     18057       157  OSM       NF             28.9025976110       17.6363151157      -15.6393985101  MEMB      157             0.0000000000
     18058       157  OSM       HNF            29.5600849206       18.1129923604      -15.0610399161  MEMB      157             0.0000000000
     18059       157  OSM       C2S            29.3392799482       16.5980947755      -16.5029740490  MEMB      157             0.0000000000
     18060       157  OSM       H2S            28.6677664326       15.7202786521      -16.3897080928  MEMB      157             0.0000000000
     18061       157  OSM       C3S            30.8139715021       16.1606318176      -16.1761158705  MEMB      157             0.0000000000
     18062       157  OSM       H3S            31.4445522786       17.0705819884      -16.2692805509  MEMB      157             0.0000000000
     18063       157  OSM       O3             31.3671538407       15.1971085595      -17.1458734496  MEMB      157             0.0000000000
     18064       157  OSM       HO3            30.9697626739       15.2336376884      -18.0189978446  MEMB      157             0.0000000000
     18065       157  OSM       C4S            30.8882598377       15.5280596043      -14.8328371599  MEMB      157             0.0000000000
     18066       157  OSM       H4S            30.7326162504       14.4396292245      -14.7997577140  MEMB      157             0.0000000000
     18067       157  OSM       C5S            31.1269514174       16.1384189283      -13.6780774188  MEMB      157             0.0000000000
     18068       157  OSM       H5S            31.1297153743       17.2374326725      -13.6315913519  MEMB      157             0.0000000000
     18069       157  OSM       C6S            31.1051662947       15.4864373873      -12.3033373396  MEMB      157             0.0000000000
     18070       157  OSM       H6S            31.9252915601       15.8836443758      -11.6677732039  MEMB      157             0.0000000000
     18071       157  OSM       H6T            31.3003918865       14.3967627969      -12.3972377578  MEMB      157             0.0000000000
     18072       157  OSM       C7S            29.7149969814       15.8865422746      -11.8053634603  MEMB      157             0.0000000000
     18073       157  OSM       H7S            28.8556012499       15.3924930009      -12.3070355774  MEMB      157             0.0000000000
     18074       157  OSM       H7T            29.4982688369       16.9699424448      -11.6887699429  MEMB      157             0.0000000000
     18075       157  OSM       C8S            29.4409842034       15.3827312228      -10.3390185217  MEMB      157             0.0000000000
     18076       157  OSM       H8S            30.0982177617       15.8225446465       -9.5586790165  MEMB      157             0.0000000000
     18077       157  OSM       H8T            29.6235237884       14.2936571807      -10.4611563602  MEMB      157             0.0000000000
     18078       157  OSM       C9S            28.0478740881       15.6082049426       -9.9724461360  MEMB      157             0.0000000000
     18079       157  OSM       H9S            27.7372709746       14.8003609639       -9.2758572448  MEMB      157             0.0000000000
     18080       157  OSM       H9T            27.4463168176       15.5258743186      -10.9028608993  MEMB      157             0.0000000000
     18081       157  OSM       C10S           27.7449332734       17.0330829023       -9.4587313207  MEMB      157             0.0000000000
     18082       157  OSM       H10S           26.6743623475       17.2741606435       -9.6321680568  MEMB      157             0.0000000000
     18083       157  OSM       H10T           28.3348384161       17.7961087255      -10.0102062275  MEMB      157             0.0000000000
     18084       157  OSM       C11S           28.0897133284       17.1106788354       -7.9751099987  MEMB      157             0.0000000000
     18085       157  OSM       H11S           27.9146794746       18.1605799820       -7.6566893457  MEMB      157             0.0000000000
     18086       157  OSM       H11T           29.1573073104       16.8452031652       -7.8199111145  MEMB      157             0.0000000000
     18087       157  OSM       C12S           27.3211497049       16.2559136858       -6.9429551845  MEMB      157             0.0000000000
     18088       157  OSM       H12S           27.8043315067       15.2559730126       -6.9741815673  MEMB      157             0.0000000000
     18089       157  OSM       H12T           26.3515690915       16.1159557558       -7.4670214921  MEMB      157             0.0000000000
     18090       157  OSM       C13S           27.1094888715       16.6611027235       -5.4659913177  MEMB      157             0.0000000000
     18091       157  OSM       H13S           26.6108592232       17.6516035759       -5.3981847145  MEMB      157             0.0000000000
     18092       157  OSM       H13T           28.1262736022       16.7136476158       -5.0213474774  MEMB      157             0.0000000000
     18093       157  OSM       C14S           26.3987376611       15.5249422414       -4.6436412930  MEMB      157             0.0000000000
     18094       157  OSM       H14S           26.7973124786       14.5344157411       -4.9507508561  MEMB      157             0.0000000000
     18095       157  OSM       H14T           25.3418640540       15.4535925218       -4.9786754646  MEMB      157             0.0000000000
     18096       157  OSM       C15S           26.2773247774       15.6791559102       -3.0540300620  MEMB      157             0.0000000000
     18097       157  OSM       H15S           27.2696306904       15.8175902023       -2.5739416815  MEMB      157             0.0000000000
     18098       157  OSM       H15T           26.0730021022       14.6409115279       -2.7154717028  MEMB      157             0.0000000000
     18099       157  OSM       C16S           25.1927752485       16.5736268575       -2.4701699479  MEMB      157             0.0000000000
     18100       157  OSM       H16S           24.2450222634       16.4801671572       -3.0423138093  MEMB      157             0.0000000000
     18101       157  OSM       H16T           25.5483764876       17.6229089839       -2.5530900231  MEMB      157             0.0000000000
     18102       157  OSM       C17S           25.0156497641       16.2948976083       -0.9826317906  MEMB      157             0.0000000000
     18103       157  OSM       H17S           25.8849692776       15.6919108119       -0.6434987450  MEMB      157             0.0000000000
     18104       157  OSM       H17T           24.0798813741       15.6977344094       -0.9373054859  MEMB      157             0.0000000000
     18105       157  OSM       C18S           24.9467883989       17.5237722141       -0.0505799623  MEMB      157             0.0000000000
     18106       157  OSM       H18S           23.9317073176       17.8812325574       -0.3265400359  MEMB      157             0.0000000000
     18107       157  OSM       H18T           25.7155147956       18.2703306070       -0.3438907894  MEMB      157             0.0000000000
     18108       157  OSM       H18U           24.9219715266       17.2492910139        1.0256937360  MEMB      157             0.0000000000
     18109       157  OSM       C1F            27.6838038094       18.1018209197      -15.5273804733  MEMB      157             0.0000000000
     18110       157  OSM       OF             26.7893511741       17.7508223746      -16.2445254551  MEMB      157             0.0000000000
     18111       157  OSM       C2F            27.4595797965       19.0981791956      -14.3722416396  MEMB      157             0.0000000000
     18112       157  OSM       H2F            28.0594661633       20.0077811745      -14.5892245665  MEMB      157             0.0000000000
     18113       157  OSM       H2G            27.7698630164       18.6069227602      -13.4252925224  MEMB      157             0.0000000000
     18114       157  OSM       C3F            26.0113199832       19.4998060781      -14.1633430244  MEMB      157             0.0000000000
     18115       157  OSM       H3F            25.5333864948       18.5543781237      -13.8285798697  MEMB      157             0.0000000000
     18116       157  OSM       H3G            25.5400752925       19.8343418860      -15.1122030487  MEMB      157             0.0000000000
     18117       157  OSM       C4F            25.8585647338       20.5678950123      -13.0935514847  MEMB      157             0.0000000000
     18118       157  OSM       H4F            24.8781459542       21.0780356236      -13.2069393669  MEMB      157             0.0000000000
     18119       157  OSM       H4G            26.7334195748       21.2470186830      -13.1815333385  MEMB      157             0.0000000000
     18120       157  OSM       C5F            25.8172989380       20.0259203599      -11.5715481711  MEMB      157             0.0000000000
     18121       157  OSM       H5F            26.8437844579       19.6830666855      -11.3203516337  MEMB      157             0.0000000000
     18122       157  OSM       H5G            25.1511097932       19.1397008393      -11.4999391608  MEMB      157             0.0000000000
     18123       157  OSM       C6F            25.5191611524       21.1223874146      -10.5453321499  MEMB      157             0.0000000000
     18124       157  OSM       H6F            24.5363963101       21.6032997384      -10.7382502645  MEMB      157             0.0000000000
     18125       157  OSM       H6G            26.2812221027       21.8758090804      -10.8384874055  MEMB      157             0.0000000000
     18126       157  OSM       C7F            25.6455099900       20.6737178832       -9.0822352525  MEMB      157             0.0000000000
     18127       157  OSM       H7F            26.7214055485       20.4266352121       -8.9568564557  MEMB      157             0.0000000000
     18128       157  OSM       H7G            25.1785281130       19.6768435940       -8.9322661452  MEMB      157             0.0000000000
     18129       157  OSM       C8F            25.2284038053       21.6737617195       -7.9414736039  MEMB      157             0.0000000000
     18130       157  OSM       H8F            25.4663417787       21.3020119413       -6.9219104088  MEMB      157             0.0000000000
     18131       157  OSM       H8G            24.1451860977       21.8578595404       -8.1059976548  MEMB      157             0.0000000000
     18132       157  OSM       C9F            25.9326003954       22.9627381134       -8.0888500279  MEMB      157             0.0000000000
     18133       157  OSM       H9F            25.5246861236       23.6231544020       -8.8682451154  MEMB      157             0.0000000000
     18134       157  OSM       C10F           27.0754446915       23.2831095044       -7.5016125191  MEMB      157             0.0000000000
     18135       157  OSM       H10F           27.4509509461       24.2961725868       -7.7082478458  MEMB      157             0.0000000000
     18136       157  OSM       C11F           27.9450805980       22.5009089115       -6.5480197252  MEMB      157             0.0000000000
     18137       157  OSM       H11F           28.8650293753       22.0746046486       -7.0021998451  MEMB      157             0.0000000000
     18138       157  OSM       H11G           27.3947999222       21.5654434228       -6.3104973945  MEMB      157             0.0000000000
     18139       157  OSM       C12F           28.1985257770       23.1280191515       -5.1811723086  MEMB      157             0.0000000000
     18140       157  OSM       H12F           27.3702649779       23.7495267473       -4.7786382537  MEMB      157             0.0000000000
     18141       157  OSM       H12G           28.9744823146       23.9087483860       -5.3317525304  MEMB      157             0.0000000000
     18142       157  OSM       C13F           28.6942776219       22.2536869905       -3.9877424795  MEMB      157             0.0000000000
     18143       157  OSM       H13F           27.9024346297       21.9111334698       -3.2877679788  MEMB      157             0.0000000000
     18144       157  OSM       H13G           29.1992086650       23.0599216873       -3.4138509113  MEMB      157             0.0000000000
     18145       157  OSM       C14F           29.6809295948       21.0499170716       -4.4306113911  MEMB      157             0.0000000000
     18146       157  OSM       H14F           30.3751777999       21.6041348019       -5.0978315025  MEMB      157             0.0000000000
     18147       157  OSM       H14G           29.1287789800       20.2292431774       -4.9365225023  MEMB      157             0.0000000000
     18148       157  OSM       C15F           30.4788096919       20.4314855044       -3.2478566263  MEMB      157             0.0000000000
     18149       157  OSM       H15F           31.1789492314       21.1984759826       -2.8530765782  MEMB      157             0.0000000000
     18150       157  OSM       H15G           31.1715820862       19.7674886763       -3.8077645413  MEMB      157             0.0000000000
     18151       157  OSM       C16F           29.6962874672       19.7998372977       -2.0703423377  MEMB      157             0.0000000000
     18152       157  OSM       H16F           29.0236793287       19.0551931365       -2.5472310485  MEMB      157             0.0000000000
     18153       157  OSM       H16G           29.1228446412       20.5777916312       -1.5223708875  MEMB      157             0.0000000000
     18154       157  OSM       C17F           30.4370064071       18.9566927276       -1.0779757571  MEMB      157             0.0000000000
     18155       157  OSM       H17F           31.3580735875       19.5011755555       -0.7788181220  MEMB      157             0.0000000000
     18156       157  OSM       H17G           30.7929696219       18.0080130776       -1.5336263182  MEMB      157             0.0000000000
     18157       157  OSM       C18F           29.6473803011       18.7191611820        0.2107093165  MEMB      157             0.0000000000
     18158       157  OSM       H18F           29.2808693284       19.6407243716        0.7114197016  MEMB      157             0.0000000000
     18159       157  OSM       H18G           30.2242190935       18.1732458909        0.9875976838  MEMB      157             0.0000000000
     18160       157  OSM       H18H           28.7649503014       18.0671553422        0.0359902995  MEMB      157             0.0000000000
     18161       158  SAPC      N             -11.7945335011      -29.7807692505      -19.0966636365  MEMB      158             0.0000000000
     18162       158  SAPC      C12           -12.0098998385      -31.2492636381      -19.4472800920  MEMB      158             0.0000000000
     18163       158  SAPC      H12A          -13.0688761226      -31.3829449541      -19.6118968280  MEMB      158             0.0000000000
     18164       158  SAPC      H12B          -11.7508886007      -31.9846565756      -18.6999445914  MEMB      158             0.0000000000
     18165       158  SAPC      C13           -12.3507325481      -29.6693372402      -17.7010500098  MEMB      158             0.0000000000
     18166       158  SAPC      H13A          -12.2451759518      -28.6675834636      -17.3115026789  MEMB      158             0.0000000000
     18167       158  SAPC      H13B          -13.4052763272      -29.8851333393      -17.6129056367  MEMB      158             0.0000000000
     18168       158  SAPC      H13C          -11.7281379958      -30.3049069508      -17.0888187129  MEMB      158             0.0000000000
     18169       158  SAPC      C14           -10.3453944765      -29.4280880074      -19.3142559844  MEMB      158             0.0000000000
     18170       158  SAPC      H14A          -10.0484531804      -29.4482136723      -20.3524374820  MEMB      158             0.0000000000
     18171       158  SAPC      H14B          -10.2822414448      -28.4364904621      -18.8909990891  MEMB      158             0.0000000000
     18172       158  SAPC      H14C           -9.6767610689      -29.9517391110      -18.6470838374  MEMB      158             0.0000000000
     18173       158  SAPC      C15           -12.7178975967      -28.9707813074      -19.9939239502  MEMB      158             0.0000000000
     18174       158  SAPC      H15A          -13.7509310079      -29.1281965424      -19.7210458185  MEMB      158             0.0000000000
     18175       158  SAPC      H15B          -12.6446172894      -27.9059683775      -19.8289895481  MEMB      158             0.0000000000
     18176       158  SAPC      H15C          -12.5109652284      -29.1662921734      -21.0357274341  MEMB      158             0.0000000000
     18177       158  SAPC      C11           -11.5679953494      -31.7592425206      -20.8427584572  MEMB      158             0.0000000000
     18178       158  SAPC      H11A          -12.0867366016      -31.2710219234      -21.6953246579  MEMB      158             0.0000000000
     18179       158  SAPC      H11B          -12.0000806541      -32.7785179735      -20.9360364689  MEMB      158             0.0000000000
     18180       158  SAPC      P              -9.3425372266      -33.0553048136      -20.7819963275  MEMB      158             0.0000000000
     18181       158  SAPC      O13            -9.4879869106      -33.8895666107      -22.0066898692  MEMB      158             0.0000000000
     18182       158  SAPC      O14            -7.9645811951      -32.7963886644      -20.2920563454  MEMB      158             0.0000000000
     18183       158  SAPC      O12           -10.1471817600      -31.7001376129      -20.9652761273  MEMB      158             0.0000000000
     18184       158  SAPC      O11           -10.1171822994      -33.8033922319      -19.5580492552  MEMB      158             0.0000000000
     18185       158  SAPC      C1             -9.7520468248      -35.1361006647      -19.0931621976  MEMB      158             0.0000000000
     18186       158  SAPC      HA            -10.0823990974      -35.9281353432      -19.7987611337  MEMB      158             0.0000000000
     18187       158  SAPC      HB             -8.6519985455      -35.1229626018      -18.9381067892  MEMB      158             0.0000000000
     18188       158  SAPC      C2            -10.5247393736      -35.4227331337      -17.7377025263  MEMB      158             0.0000000000
     18189       158  SAPC      HS            -10.8861028490      -36.4725942120      -17.6985976417  MEMB      158             0.0000000000
     18190       158  SAPC      O21           -11.7498811675      -34.6234540371      -17.5918828139  MEMB      158             0.0000000000
     18191       158  SAPC      C21           -12.6814071624      -34.9521319309      -18.5187478004  MEMB      158             0.0000000000
     18192       158  SAPC      O22           -12.5421928244      -35.6739058670      -19.4844082287  MEMB      158             0.0000000000
     18193       158  SAPC      C22           -13.8756691969      -34.0258654073      -18.1946289691  MEMB      158             0.0000000000
     18194       158  SAPC      H2R           -13.5704648249      -32.9578009655      -18.1743954422  MEMB      158             0.0000000000
     18195       158  SAPC      H2S           -14.7113740730      -34.3392777647      -18.8562114377  MEMB      158             0.0000000000
     18196       158  SAPC      C3             -9.4656360524      -35.0677715923      -16.6347959015  MEMB      158             0.0000000000
     18197       158  SAPC      HX             -8.6926936367      -35.8495743399      -16.7949998476  MEMB      158             0.0000000000
     18198       158  SAPC      HY             -9.9097203383      -35.2191062840      -15.6277166568  MEMB      158             0.0000000000
     18199       158  SAPC      O31            -8.8884926151      -33.8171461600      -16.8044016227  MEMB      158             0.0000000000
     18200       158  SAPC      C31            -9.5028259105      -32.7232079558      -16.2992210898  MEMB      158             0.0000000000
     18201       158  SAPC      O32           -10.5947488241      -32.7186026482      -15.8074851403  MEMB      158             0.0000000000
     18202       158  SAPC      C32            -8.5285945822      -31.6149696111      -16.7193257489  MEMB      158             0.0000000000
     18203       158  SAPC      H2X            -8.8043141319      -31.2629879409      -17.7363846596  MEMB      158             0.0000000000
     18204       158  SAPC      H2Y            -7.4709579767      -31.9439040341      -16.6325632419  MEMB      158             0.0000000000
     18205       158  SAPC      C23           -14.4161474220      -34.3453273007      -16.7737170721  MEMB      158             0.0000000000
     18206       158  SAPC      H3R           -13.5454994274      -34.4190562336      -16.0875264459  MEMB      158             0.0000000000
     18207       158  SAPC      H3S           -14.8803633493      -35.3451693349      -16.9120652670  MEMB      158             0.0000000000
     18208       158  SAPC      C24           -15.4179265773      -33.3924114153      -16.1084238046  MEMB      158             0.0000000000
     18209       158  SAPC      H4R           -15.6164070160      -33.6719771476      -15.0516502665  MEMB      158             0.0000000000
     18210       158  SAPC      H4S           -16.3642353048      -33.6183886074      -16.6448519111  MEMB      158             0.0000000000
     18211       158  SAPC      C25           -15.0364767145      -31.9801434882      -16.2695000712  MEMB      158             0.0000000000
     18212       158  SAPC      H5R           -14.9059408883      -31.6283024385      -17.3035063029  MEMB      158             0.0000000000
     18213       158  SAPC      C26           -14.9406986655      -31.1139928506      -15.2489143643  MEMB      158             0.0000000000
     18214       158  SAPC      H6R           -14.7841847456      -30.0538322863      -15.4970323581  MEMB      158             0.0000000000
     18215       158  SAPC      C27           -15.2028989466      -31.2731564169      -13.8027380590  MEMB      158             0.0000000000
     18216       158  SAPC      H7R           -16.0487421609      -31.9875400965      -13.7103968061  MEMB      158             0.0000000000
     18217       158  SAPC      H7S           -15.6124068898      -30.3774401734      -13.2886205641  MEMB      158             0.0000000000
     18218       158  SAPC      C28           -13.9096723092      -31.5864988994      -13.0788773210  MEMB      158             0.0000000000
     18219       158  SAPC      H8R           -13.0660936644      -31.9203911021      -13.7008833817  MEMB      158             0.0000000000
     18220       158  SAPC      C29           -13.7479679304      -31.5144466007      -11.7186959426  MEMB      158             0.0000000000
     18221       158  SAPC      H9R           -12.8424288763      -31.8947916969      -11.2233811141  MEMB      158             0.0000000000
     18222       158  SAPC      C210          -14.8926235217      -31.0520172290      -10.8016583007  MEMB      158             0.0000000000
     18223       158  SAPC      H10R          -15.2591191723      -31.7426461482      -10.0123326859  MEMB      158             0.0000000000
     18224       158  SAPC      H10S          -15.8345898466      -30.8276743532      -11.3463511311  MEMB      158             0.0000000000
     18225       158  SAPC      C211          -14.6340809333      -29.7961545694      -10.0006950510  MEMB      158             0.0000000000
     18226       158  SAPC      H11R          -15.2032517100      -28.8873659954      -10.2459444673  MEMB      158             0.0000000000
     18227       158  SAPC      C212          -13.7180127502      -29.6299270097       -9.0610201766  MEMB      158             0.0000000000
     18228       158  SAPC      H12R          -13.4992012705      -28.6223602853       -8.6777052633  MEMB      158             0.0000000000
     18229       158  SAPC      C213          -12.7248033575      -30.6213762600       -8.5620661348  MEMB      158             0.0000000000
     18230       158  SAPC      H13R          -11.9095558006      -30.6466942947       -9.3164216345  MEMB      158             0.0000000000
     18231       158  SAPC      H13S          -13.1588182728      -31.6436673842       -8.5325199736  MEMB      158             0.0000000000
     18232       158  SAPC      C214          -12.0810946198      -30.2752866287       -7.2426521163  MEMB      158             0.0000000000
     18233       158  SAPC      H14R          -11.5675614326      -29.3033667180       -7.2019658224  MEMB      158             0.0000000000
     18234       158  SAPC      C215          -11.8042462436      -31.1782289592       -6.3097867778  MEMB      158             0.0000000000
     18235       158  SAPC      H15R          -11.3007620055      -30.7989815743       -5.4083020839  MEMB      158             0.0000000000
     18236       158  SAPC      C216          -12.0639267111      -32.6363937490       -6.3117097288  MEMB      158             0.0000000000
     18237       158  SAPC      H16R          -11.3241729888      -33.2043013048       -5.7079165109  MEMB      158             0.0000000000
     18238       158  SAPC      H16S          -12.1471266943      -32.9943380162       -7.3601721557  MEMB      158             0.0000000000
     18239       158  SAPC      C217          -13.3606894086      -33.0074303302       -5.6505539137  MEMB      158             0.0000000000
     18240       158  SAPC      H17R          -13.5179011989      -34.0739338161       -5.9192094821  MEMB      158             0.0000000000
     18241       158  SAPC      H17S          -14.2942924014      -32.5410068709       -6.0315478409  MEMB      158             0.0000000000
     18242       158  SAPC      C218          -13.3184960491      -32.9485574811       -4.1182589424  MEMB      158             0.0000000000
     18243       158  SAPC      H18R          -13.2159381368      -31.8628244136       -3.9061585647  MEMB      158             0.0000000000
     18244       158  SAPC      H18S          -12.4418570362      -33.3851422690       -3.5936472488  MEMB      158             0.0000000000
     18245       158  SAPC      C219          -14.6065004677      -33.5070221725       -3.5320203096  MEMB      158             0.0000000000
     18246       158  SAPC      H19R          -14.7084452849      -34.5538851164       -3.8897993682  MEMB      158             0.0000000000
     18247       158  SAPC      H19S          -15.4788726931      -32.9407850469       -3.9227412227  MEMB      158             0.0000000000
     18248       158  SAPC      C220          -14.6817432610      -33.7043346094       -1.9837843217  MEMB      158             0.0000000000
     18249       158  SAPC      H20R          -15.7471983809      -33.7358439997       -1.6705216519  MEMB      158             0.0000000000
     18250       158  SAPC      H20S          -14.1638865816      -32.9097535934       -1.4051766570  MEMB      158             0.0000000000
     18251       158  SAPC      H20T          -14.2602665358      -34.7066543592       -1.7556748029  MEMB      158             0.0000000000
     18252       158  SAPC      C33            -8.6434296558      -30.3039536085      -15.7964108367  MEMB      158             0.0000000000
     18253       158  SAPC      H3X            -9.7330724184      -30.1317568873      -15.6646990920  MEMB      158             0.0000000000
     18254       158  SAPC      H3Y            -8.1306684993      -29.5140412957      -16.3858476594  MEMB      158             0.0000000000
     18255       158  SAPC      C34            -7.9101328376      -30.3984159834      -14.4129510914  MEMB      158             0.0000000000
     18256       158  SAPC      H4X            -7.5293844870      -29.4107281706      -14.0755726102  MEMB      158             0.0000000000
     18257       158  SAPC      H4Y            -6.9967375689      -31.0122708091      -14.5653068070  MEMB      158             0.0000000000
     18258       158  SAPC      C35            -8.7504320474      -31.0561868304      -13.2887270264  MEMB      158             0.0000000000
     18259       158  SAPC      H5X            -8.8122594486      -32.1495801352      -13.4757813455  MEMB      158             0.0000000000
     18260       158  SAPC      H5Y            -9.7798597872      -30.6385187094      -13.2763629799  MEMB      158             0.0000000000
     18261       158  SAPC      C36            -8.2705336953      -30.9322861839      -11.8747090183  MEMB      158             0.0000000000
     18262       158  SAPC      H6X            -7.9826165360      -29.8791128528      -11.6691592020  MEMB      158             0.0000000000
     18263       158  SAPC      H6Y            -7.3132127696      -31.4692395201      -11.7028406619  MEMB      158             0.0000000000
     18264       158  SAPC      C37            -9.2156708474      -31.1963699061      -10.6528873763  MEMB      158             0.0000000000
     18265       158  SAPC      H7X            -9.7932491325      -32.0554148127      -11.0563302439  MEMB      158             0.0000000000
     18266       158  SAPC      H7Y            -9.9351676859      -30.3756883399      -10.4452169022  MEMB      158             0.0000000000
     18267       158  SAPC      C38            -8.4738302564      -31.8121405685       -9.5149772925  MEMB      158             0.0000000000
     18268       158  SAPC      H8X            -7.7845800008      -32.6127863074       -9.8588105437  MEMB      158             0.0000000000
     18269       158  SAPC      H8Y            -9.0954660977      -32.1941472035       -8.6771459581  MEMB      158             0.0000000000
     18270       158  SAPC      C39            -7.4975875379      -30.6889183834       -8.8217679925  MEMB      158             0.0000000000
     18271       158  SAPC      H9X            -8.2560972628      -29.9517919574       -8.4817264085  MEMB      158             0.0000000000
     18272       158  SAPC      H9Y            -6.8191744280      -30.2080614051       -9.5585534106  MEMB      158             0.0000000000
     18273       158  SAPC      C310           -6.6566168358      -31.2955581374       -7.6634199045  MEMB      158             0.0000000000
     18274       158  SAPC      H10X           -5.9658417995      -30.5120067360       -7.2850052740  MEMB      158             0.0000000000
     18275       158  SAPC      H10Y           -6.1139402148      -32.1039449738       -8.1985219515  MEMB      158             0.0000000000
     18276       158  SAPC      C311           -7.4288563320      -31.8640003413       -6.5138993762  MEMB      158             0.0000000000
     18277       158  SAPC      H11X           -8.0255889093      -32.7125307534       -6.9116774989  MEMB      158             0.0000000000
     18278       158  SAPC      H11Y           -8.1756326076      -31.0945127153       -6.2231501169  MEMB      158             0.0000000000
     18279       158  SAPC      C312           -6.5894575994      -32.2512765247       -5.2289373012  MEMB      158             0.0000000000
     18280       158  SAPC      H12X           -5.9898362116      -31.3668990414       -4.9245507071  MEMB      158             0.0000000000
     18281       158  SAPC      H12Y           -5.9072002424      -33.0654877110       -5.5543699792  MEMB      158             0.0000000000
     18282       158  SAPC      C313           -7.4234290610      -32.6788448962       -4.0348442267  MEMB      158             0.0000000000
     18283       158  SAPC      H13X           -8.2254178680      -31.9921073546       -3.6891172244  MEMB      158             0.0000000000
     18284       158  SAPC      H13Y           -6.5982541671      -32.7597852292       -3.2953471458  MEMB      158             0.0000000000
     18285       158  SAPC      C314           -7.9536228643      -34.1435501479       -4.0829832371  MEMB      158             0.0000000000
     18286       158  SAPC      H14X           -7.1650961762      -34.8645184928       -4.3875354194  MEMB      158             0.0000000000
     18287       158  SAPC      H14Y           -8.7239455335      -34.1723355093       -4.8830434279  MEMB      158             0.0000000000
     18288       158  SAPC      C315           -8.6706487578      -34.6286459822       -2.7756608217  MEMB      158             0.0000000000
     18289       158  SAPC      H15X           -9.2781586154      -35.5068350626       -3.0823145717  MEMB      158             0.0000000000
     18290       158  SAPC      H15Y           -9.3743396569      -33.8262764185       -2.4668844035  MEMB      158             0.0000000000
     18291       158  SAPC      C316           -7.6442392449      -35.0327757503       -1.7259607553  MEMB      158             0.0000000000
     18292       158  SAPC      H16X           -7.0882952336      -34.1705829855       -1.2994984191  MEMB      158             0.0000000000
     18293       158  SAPC      H16Y           -6.8778196947      -35.7059361945       -2.1661618657  MEMB      158             0.0000000000
     18294       158  SAPC      C317           -8.3802797570      -35.7919839236       -0.5457305268  MEMB      158             0.0000000000
     18295       158  SAPC      H17X           -7.6958962952      -35.6095937488        0.3102336192  MEMB      158             0.0000000000
     18296       158  SAPC      H17Y           -8.3307522715      -36.8496025115       -0.8823470665  MEMB      158             0.0000000000
     18297       158  SAPC      C318           -9.7992406463      -35.3917385376       -0.1747047161  MEMB      158             0.0000000000
     18298       158  SAPC      H18X           -9.7742438210      -34.3321415618        0.1583871802  MEMB      158             0.0000000000
     18299       158  SAPC      H18Y          -10.1989603204      -36.0250050753        0.6459762477  MEMB      158             0.0000000000
     18300       158  SAPC      H18Z          -10.6089355007      -35.4174279594       -0.9350051274  MEMB      158             0.0000000000
     18301       159  SAPE      N             -23.7443811057       21.8444614471      -20.8422204942  MEMB      159             0.0000000000
     18302       159  SAPE      HN1           -24.3758427989       22.6642053945      -20.7379311706  MEMB      159             0.0000000000
     18303       159  SAPE      HN2           -24.2181747535       21.1057169613      -21.4002313844  MEMB      159             0.0000000000
     18304       159  SAPE      HN3           -23.5738462964       21.5834675658      -19.8500511847  MEMB      159             0.0000000000
     18305       159  SAPE      C12           -22.4317550964       22.3426457887      -21.5074201835  MEMB      159             0.0000000000
     18306       159  SAPE      H12A          -22.7032292293       22.7359003645      -22.5104026132  MEMB      159             0.0000000000
     18307       159  SAPE      H12B          -21.7536438967       21.4706843004      -21.6264558623  MEMB      159             0.0000000000
     18308       159  SAPE      C11           -21.8316033365       23.5481371872      -20.7416326247  MEMB      159             0.0000000000
     18309       159  SAPE      H11A          -20.9344163948       23.9162440887      -21.2837340337  MEMB      159             0.0000000000
     18310       159  SAPE      H11B          -21.4757964057       23.1022134933      -19.7882835367  MEMB      159             0.0000000000
     18311       159  SAPE      P             -23.0119706675       25.3004013567      -19.3580335836  MEMB      159             0.0000000000
     18312       159  SAPE      O13           -23.9538770637       26.4267693738      -19.5734756039  MEMB      159             0.0000000000
     18313       159  SAPE      O14           -23.3800819698       24.2727620549      -18.3801415236  MEMB      159             0.0000000000
     18314       159  SAPE      O12           -22.8221479124       24.5093221306      -20.7045102155  MEMB      159             0.0000000000
     18315       159  SAPE      O11           -21.6213148362       25.7944806659      -18.8925658098  MEMB      159             0.0000000000
     18316       159  SAPE      C1            -21.0387005547       26.8009287325      -19.7021509937  MEMB      159             0.0000000000
     18317       159  SAPE      HA            -20.3522617170       26.2800558816      -20.4034456300  MEMB      159             0.0000000000
     18318       159  SAPE      HB            -21.6583804351       27.4502130997      -20.3569391448  MEMB      159             0.0000000000
     18319       159  SAPE      C2            -20.3135357996       27.8167250118      -18.6896386417  MEMB      159             0.0000000000
     18320       159  SAPE      HS            -19.5273131245       28.3909227931      -19.2248690191  MEMB      159             0.0000000000
     18321       159  SAPE      O21           -19.6328627031       27.0301896658      -17.6139729867  MEMB      159             0.0000000000
     18322       159  SAPE      C21           -18.8333777843       26.0387349274      -18.0632041781  MEMB      159             0.0000000000
     18323       159  SAPE      O22           -18.3498346952       26.0024519830      -19.1686512244  MEMB      159             0.0000000000
     18324       159  SAPE      C22           -18.5153248005       25.0778217581      -16.8820933386  MEMB      159             0.0000000000
     18325       159  SAPE      H2R           -17.6356406483       25.4630368590      -16.3234470783  MEMB      159             0.0000000000
     18326       159  SAPE      H2S           -19.3779818912       24.8875351638      -16.2083462509  MEMB      159             0.0000000000
     18327       159  SAPE      C3            -21.3652864449       28.7869496099      -18.0301956384  MEMB      159             0.0000000000
     18328       159  SAPE      HX            -21.7402735782       29.4378924744      -18.8487178578  MEMB      159             0.0000000000
     18329       159  SAPE      HY            -20.9221882970       29.5518762209      -17.3572376414  MEMB      159             0.0000000000
     18330       159  SAPE      O31           -22.4564024724       28.0042005568      -17.4495586675  MEMB      159             0.0000000000
     18331       159  SAPE      C31           -22.3886878223       27.6997152665      -16.1000618003  MEMB      159             0.0000000000
     18332       159  SAPE      O32           -21.4701591412       28.0512798621      -15.3484341826  MEMB      159             0.0000000000
     18333       159  SAPE      C32           -23.5341722180       26.7042036589      -15.5957086084  MEMB      159             0.0000000000
     18334       159  SAPE      H2X           -23.2131090660       25.6408087052      -15.5749568322  MEMB      159             0.0000000000
     18335       159  SAPE      H2Y           -24.3935584757       26.7890710009      -16.2946894360  MEMB      159             0.0000000000
     18336       159  SAPE      C23           -18.3506059727       23.5998722616      -17.4269892064  MEMB      159             0.0000000000
     18337       159  SAPE      H3R           -17.2809972424       23.5347519963      -17.7202761659  MEMB      159             0.0000000000
     18338       159  SAPE      H3S           -19.0226531865       23.3279912051      -18.2688644336  MEMB      159             0.0000000000
     18339       159  SAPE      C24           -18.6655859425       22.5594600306      -16.2670507839  MEMB      159             0.0000000000
     18340       159  SAPE      H4R           -18.4560693190       21.5810541598      -16.7499021917  MEMB      159             0.0000000000
     18341       159  SAPE      H4S           -19.7713154722       22.5144142394      -16.1687957279  MEMB      159             0.0000000000
     18342       159  SAPE      C25           -17.7898174035       22.7915032650      -15.0269349022  MEMB      159             0.0000000000
     18343       159  SAPE      H5R           -16.6960329041       22.7263393537      -15.1238306216  MEMB      159             0.0000000000
     18344       159  SAPE      C26           -18.3132470528       22.8992751103      -13.7226892890  MEMB      159             0.0000000000
     18345       159  SAPE      H6R           -17.5714821979       23.0317560788      -12.9212947273  MEMB      159             0.0000000000
     18346       159  SAPE      C27           -19.7224203854       22.8454696084      -13.2957488765  MEMB      159             0.0000000000
     18347       159  SAPE      H7R           -20.2073327579       21.9363081315      -13.7112085028  MEMB      159             0.0000000000
     18348       159  SAPE      H7S           -20.3010746418       23.6522130427      -13.7943920123  MEMB      159             0.0000000000
     18349       159  SAPE      C28           -19.8662015202       22.7679000568      -11.7882551512  MEMB      159             0.0000000000
     18350       159  SAPE      H8R           -19.6799239668       21.7345350557      -11.4604481535  MEMB      159             0.0000000000
     18351       159  SAPE      C29           -20.1704290960       23.7556305674      -10.9084184187  MEMB      159             0.0000000000
     18352       159  SAPE      H9R           -20.2788008156       23.4863034374       -9.8474193738  MEMB      159             0.0000000000
     18353       159  SAPE      C210          -20.4785809269       25.2225256965      -11.2385133487  MEMB      159             0.0000000000
     18354       159  SAPE      H10R          -21.5172576323       25.4535561030      -10.9189875900  MEMB      159             0.0000000000
     18355       159  SAPE      H10S          -20.3780554128       25.3824855049      -12.3333322663  MEMB      159             0.0000000000
     18356       159  SAPE      C211          -19.5680885354       26.1072388193      -10.4105520724  MEMB      159             0.0000000000
     18357       159  SAPE      H11R          -18.5659826632       26.2790549275      -10.8303890804  MEMB      159             0.0000000000
     18358       159  SAPE      C212          -19.8206321040       26.5493108981       -9.1393808994  MEMB      159             0.0000000000
     18359       159  SAPE      H12R          -19.0233651069       27.1239263544       -8.6452331836  MEMB      159             0.0000000000
     18360       159  SAPE      C213          -21.0715139050       26.2106717348       -8.3451982346  MEMB      159             0.0000000000
     18361       159  SAPE      H13R          -20.8376593563       25.7152178457       -7.3786793362  MEMB      159             0.0000000000
     18362       159  SAPE      H13S          -21.7689014470       25.4425017515       -8.7425477728  MEMB      159             0.0000000000
     18363       159  SAPE      C214          -21.9289454367       27.4685246263       -8.0443736143  MEMB      159             0.0000000000
     18364       159  SAPE      H14R          -22.8047351397       27.5369421088       -8.7064241829  MEMB      159             0.0000000000
     18365       159  SAPE      C215          -21.6986703512       28.4507336405       -7.0834489670  MEMB      159             0.0000000000
     18366       159  SAPE      H15R          -22.4784599105       29.2206475906       -6.9877343955  MEMB      159             0.0000000000
     18367       159  SAPE      C216          -20.5824422882       28.4969637568       -6.0467809092  MEMB      159             0.0000000000
     18368       159  SAPE      H16R          -20.9136265257       29.3494141840       -5.4159350467  MEMB      159             0.0000000000
     18369       159  SAPE      H16S          -19.6059742436       28.9151406236       -6.3722951481  MEMB      159             0.0000000000
     18370       159  SAPE      C217          -20.1761190734       27.2493359391       -5.1748816934  MEMB      159             0.0000000000
     18371       159  SAPE      H17R          -19.9529842119       26.3425993562       -5.7768455609  MEMB      159             0.0000000000
     18372       159  SAPE      H17S          -20.9562203771       27.0116131969       -4.4203946115  MEMB      159             0.0000000000
     18373       159  SAPE      C218          -18.9617902781       27.4665817427       -4.2579518756  MEMB      159             0.0000000000
     18374       159  SAPE      H18R          -19.2165537219       27.9875583039       -3.3103231528  MEMB      159             0.0000000000
     18375       159  SAPE      H18S          -18.2186992647       28.1016120751       -4.7860364593  MEMB      159             0.0000000000
     18376       159  SAPE      C219          -18.3050741437       26.1477472075       -3.8588742867  MEMB      159             0.0000000000
     18377       159  SAPE      H19R          -17.3479844983       26.3314647343       -3.3254448577  MEMB      159             0.0000000000
     18378       159  SAPE      H19S          -17.9450211918       25.6864945021       -4.8032944779  MEMB      159             0.0000000000
     18379       159  SAPE      C220          -19.0326774671       25.1412285306       -3.0511902827  MEMB      159             0.0000000000
     18380       159  SAPE      H20R          -18.3963271331       24.3023801051       -2.6966299420  MEMB      159             0.0000000000
     18381       159  SAPE      H20S          -19.7322601567       24.7000296964       -3.7929759144  MEMB      159             0.0000000000
     18382       159  SAPE      H20T          -19.6857054541       25.6018290247       -2.2793582078  MEMB      159             0.0000000000
     18383       159  SAPE      C33           -24.0350598388       27.0474147465      -14.1596290071  MEMB      159             0.0000000000
     18384       159  SAPE      H3X           -24.3499201172       28.1109392790      -14.0956037461  MEMB      159             0.0000000000
     18385       159  SAPE      H3Y           -23.1418950750       26.9577232019      -13.5050043690  MEMB      159             0.0000000000
     18386       159  SAPE      C34           -25.2160146843       26.1859254119      -13.6434534552  MEMB      159             0.0000000000
     18387       159  SAPE      H4X           -25.3474262324       25.3122877952      -14.3171067513  MEMB      159             0.0000000000
     18388       159  SAPE      H4Y           -26.0533745380       26.9102914648      -13.7353434413  MEMB      159             0.0000000000
     18389       159  SAPE      C35           -25.1061287292       25.7162545180      -12.2284024956  MEMB      159             0.0000000000
     18390       159  SAPE      H5X           -26.1081269707       25.2798471563      -12.0287315368  MEMB      159             0.0000000000
     18391       159  SAPE      H5Y           -24.7777704217       26.6067277504      -11.6508564157  MEMB      159             0.0000000000
     18392       159  SAPE      C36           -24.0947624262       24.6011591471      -12.0005184789  MEMB      159             0.0000000000
     18393       159  SAPE      H6X           -23.0843377841       25.0476199905      -12.1189898350  MEMB      159             0.0000000000
     18394       159  SAPE      H6Y           -24.2519292804       23.6524899499      -12.5569773860  MEMB      159             0.0000000000
     18395       159  SAPE      C37           -24.1437771451       24.1862733511      -10.5145780915  MEMB      159             0.0000000000
     18396       159  SAPE      H7X           -24.1428885292       25.1212015989       -9.9143866276  MEMB      159             0.0000000000
     18397       159  SAPE      H7Y           -23.1799162068       23.7264651158      -10.2081963971  MEMB      159             0.0000000000
     18398       159  SAPE      C38           -25.3609513383       23.3605591625      -10.3218257714  MEMB      159             0.0000000000
     18399       159  SAPE      H8X           -25.5911022146       22.6530983309      -11.1469623171  MEMB      159             0.0000000000
     18400       159  SAPE      H8Y           -26.2710592204       23.9863005330      -10.2015269624  MEMB      159             0.0000000000
     18401       159  SAPE      C39           -25.1881387993       22.3775293660       -9.1626227649  MEMB      159             0.0000000000
     18402       159  SAPE      H9X           -24.3698244448       21.6493301391       -9.3481181809  MEMB      159             0.0000000000
     18403       159  SAPE      H9Y           -26.0810163474       21.7470955237       -8.9635148093  MEMB      159             0.0000000000
     18404       159  SAPE      C310          -24.7481578707       22.8964602848       -7.7753927568  MEMB      159             0.0000000000
     18405       159  SAPE      H10X          -23.6511512217       23.0296418063       -7.8901104732  MEMB      159             0.0000000000
     18406       159  SAPE      H10Y          -24.8309889719       22.0499606069       -7.0606218772  MEMB      159             0.0000000000
     18407       159  SAPE      C311          -25.6058661543       24.1163660817       -7.3275945401  MEMB      159             0.0000000000
     18408       159  SAPE      H11X          -26.6620630773       23.7732396410       -7.3597399567  MEMB      159             0.0000000000
     18409       159  SAPE      H11Y          -25.5016055996       25.0835724573       -7.8642158675  MEMB      159             0.0000000000
     18410       159  SAPE      C312          -25.2245689709       24.4431499480       -5.8573146669  MEMB      159             0.0000000000
     18411       159  SAPE      H12X          -25.3345682835       23.4700770833       -5.3325759091  MEMB      159             0.0000000000
     18412       159  SAPE      H12Y          -25.9505168080       25.1100336747       -5.3448823692  MEMB      159             0.0000000000
     18413       159  SAPE      C313          -23.8370346481       25.1103999000       -5.6725502192  MEMB      159             0.0000000000
     18414       159  SAPE      H13X          -23.7327608313       25.9912851946       -6.3414957388  MEMB      159             0.0000000000
     18415       159  SAPE      H13Y          -23.1838304181       24.3420018058       -6.1386072805  MEMB      159             0.0000000000
     18416       159  SAPE      C314          -23.3837264063       25.3076326028       -4.2861919261  MEMB      159             0.0000000000
     18417       159  SAPE      H14X          -24.0033101678       26.0767748503       -3.7774121564  MEMB      159             0.0000000000
     18418       159  SAPE      H14Y          -22.3094173289       25.5898984694       -4.2636786513  MEMB      159             0.0000000000
     18419       159  SAPE      C315          -23.5019032917       24.0454574369       -3.4047097458  MEMB      159             0.0000000000
     18420       159  SAPE      H15X          -24.5665863789       23.7493190962       -3.2903728041  MEMB      159             0.0000000000
     18421       159  SAPE      H15Y          -23.1986806415       24.3295157250       -2.3743274304  MEMB      159             0.0000000000
     18422       159  SAPE      C316          -22.5399091605       22.9870336541       -3.8650175515  MEMB      159             0.0000000000
     18423       159  SAPE      H16X          -21.6645747963       23.3952706523       -4.4140652662  MEMB      159             0.0000000000
     18424       159  SAPE      H16Y          -23.0838104844       22.3444399046       -4.5899771149  MEMB      159             0.0000000000
     18425       159  SAPE      C317          -21.9668751807       22.0710085727       -2.7068283669  MEMB      159             0.0000000000
     18426       159  SAPE      H17X          -21.2739959523       22.7576019081       -2.1750116598  MEMB      159             0.0000000000
     18427       159  SAPE      H17Y          -21.2925285602       21.2541836048       -3.0420514783  MEMB      159             0.0000000000
     18428       159  SAPE      C318          -22.8924452200       21.4726286881       -1.7362613326  MEMB      159             0.0000000000
     18429       159  SAPE      H18X          -23.6512641845       22.2288098639       -1.4418040290  MEMB      159             0.0000000000
     18430       159  SAPE      H18Y          -22.3637576605       21.0780814763       -0.8423134221  MEMB      159             0.0000000000
     18431       159  SAPE      H18Z          -23.4730407361       20.6543178769       -2.2133349683  MEMB      159             0.0000000000
     18432       160  CHL1      C3             10.1520798567      -31.9660945245      -17.3674200000  MEMB      160             0.0000000000
     18433       160  CHL1      H3              9.0777611509      -32.2462421900      -17.3263200000  MEMB      160             0.0000000000
     18434       160  CHL1      O3             10.3686831433      -31.4414650755      -18.6325800000  MEMB      160             0.0000000000
     18435       160  CHL1      H3'             9.6368190153      -30.8338918327      -18.7622700000  MEMB      160             0.0000000000
     18436       160  CHL1      C4             10.3760789627      -30.8672755560      -16.3706200000  MEMB      160             0.0000000000
     18437       160  CHL1      H4A            11.3693155297      -30.4117128134      -16.5712800000  MEMB      160             0.0000000000
     18438       160  CHL1      H4B             9.5308174938      -30.2142973531      -16.6763700000  MEMB      160             0.0000000000
     18439       160  CHL1      C5             10.1018963182      -31.4530571599      -14.9851000000  MEMB      160             0.0000000000
     18440       160  CHL1      C6              9.0720697542      -31.0370379335      -14.2544700000  MEMB      160             0.0000000000
     18441       160  CHL1      H6              8.3863461992      -30.2789835304      -14.6608400000  MEMB      160             0.0000000000
     18442       160  CHL1      C7              8.6745956023      -31.5505035393      -12.8797600000  MEMB      160             0.0000000000
     18443       160  CHL1      H7A             8.4594855481      -30.5963691770      -12.3528100000  MEMB      160             0.0000000000
     18444       160  CHL1      H7B             7.7032371278      -32.0693666386      -13.0266600000  MEMB      160             0.0000000000
     18445       160  CHL1      C8              9.7964890923      -32.2801574494      -12.1923500000  MEMB      160             0.0000000000
     18446       160  CHL1      H8             10.5242520737      -31.5387576241      -11.7986400000  MEMB      160             0.0000000000
     18447       160  CHL1      C14             9.4426542613      -32.9154619892      -10.9171500000  MEMB      160             0.0000000000
     18448       160  CHL1      H14             8.7007701301      -33.7220417051      -11.0997700000  MEMB      160             0.0000000000
     18449       160  CHL1      C15             9.0590347177      -32.0638789845       -9.6115400000  MEMB      160             0.0000000000
     18450       160  CHL1      H15A            9.7473627362      -31.1937675129       -9.5528600000  MEMB      160             0.0000000000
     18451       160  CHL1      H15B            7.9974079682      -31.7518105437       -9.7108900000  MEMB      160             0.0000000000
     18452       160  CHL1      C16             9.3768525823      -32.9848503712       -8.4651500000  MEMB      160             0.0000000000
     18453       160  CHL1      H16A           10.0184502205      -32.3526245983       -7.8147800000  MEMB      160             0.0000000000
     18454       160  CHL1      H16B            8.6460997173      -33.3580044937       -7.7160900000  MEMB      160             0.0000000000
     18455       160  CHL1      C17            10.0743492947      -34.2957596076       -8.9977400000  MEMB      160             0.0000000000
     18456       160  CHL1      H17             9.2925829244      -35.0552400411       -9.2130400000  MEMB      160             0.0000000000
     18457       160  CHL1      C13            10.5917773380      -33.7757279639      -10.3236000000  MEMB      160             0.0000000000
     18458       160  CHL1      C18            11.9032635415      -32.9022928760      -10.0599200000  MEMB      160             0.0000000000
     18459       160  CHL1      H18A           11.6883713276      -32.1706799621       -9.2519000000  MEMB      160             0.0000000000
     18460       160  CHL1      H18B           12.7274609799      -33.5342324377       -9.6653700000  MEMB      160             0.0000000000
     18461       160  CHL1      H18C           12.3427470498      -32.3919204851      -10.9434900000  MEMB      160             0.0000000000
     18462       160  CHL1      C12            11.0861419686      -34.8216147539      -11.2628000000  MEMB      160             0.0000000000
     18463       160  CHL1      H12A           11.6372670942      -35.6379664922      -10.7488400000  MEMB      160             0.0000000000
     18464       160  CHL1      H12B           10.1666960545      -35.3612297758      -11.5754400000  MEMB      160             0.0000000000
     18465       160  CHL1      C11            11.5299121827      -34.1355996888      -12.6202300000  MEMB      160             0.0000000000
     18466       160  CHL1      H11A           12.5307487615      -33.6567199755      -12.5626300000  MEMB      160             0.0000000000
     18467       160  CHL1      H11B           11.5610418340      -34.9400613953      -13.3858600000  MEMB      160             0.0000000000
     18468       160  CHL1      C9             10.4867892766      -33.2469505778      -13.2147800000  MEMB      160             0.0000000000
     18469       160  CHL1      H9              9.6408230459      -33.8637785955      -13.5865000000  MEMB      160             0.0000000000
     18470       160  CHL1      C10            11.0173767281      -32.5358870541      -14.5567400000  MEMB      160             0.0000000000
     18471       160  CHL1      C19            12.4153717555      -31.9249644668      -14.4454700000  MEMB      160             0.0000000000
     18472       160  CHL1      H19A           13.1671405165      -32.7414695779      -14.3958100000  MEMB      160             0.0000000000
     18473       160  CHL1      H19B           12.7459771711      -31.2576839366      -15.2699500000  MEMB      160             0.0000000000
     18474       160  CHL1      H19C           12.4975798123      -31.2856949102      -13.5405400000  MEMB      160             0.0000000000
     18475       160  CHL1      C1             11.0138527127      -33.5757730189      -15.6357900000  MEMB      160             0.0000000000
     18476       160  CHL1      H1A            11.8543627656      -34.3012815606      -15.5969600000  MEMB      160             0.0000000000
     18477       160  CHL1      H1B             9.9871298583      -33.9981501523      -15.5938200000  MEMB      160             0.0000000000
     18478       160  CHL1      C2             11.0762873426      -33.0497442628      -17.0600000000  MEMB      160             0.0000000000
     18479       160  CHL1      H2A            10.8876242141      -33.9023984212      -17.7468000000  MEMB      160             0.0000000000
     18480       160  CHL1      H2B            12.1393768162      -32.7594238866      -17.2009800000  MEMB      160             0.0000000000
     18481       160  CHL1      C20            10.8246591872      -34.9962368712       -7.8446500000  MEMB      160             0.0000000000
     18482       160  CHL1      H20            11.4053342905      -34.2029792500       -7.3270700000  MEMB      160             0.0000000000
     18483       160  CHL1      C21            11.9751527547      -36.0113369491       -8.1855400000  MEMB      160             0.0000000000
     18484       160  CHL1      H21A           12.4602413443      -36.4690100808       -7.2969800000  MEMB      160             0.0000000000
     18485       160  CHL1      H21B           12.8353064683      -35.5293428120       -8.6975300000  MEMB      160             0.0000000000
     18486       160  CHL1      H21C           11.5933447711      -36.8120634671       -8.8544100000  MEMB      160             0.0000000000
     18487       160  CHL1      C22             9.8293904813      -35.5767077917       -6.7590000000  MEMB      160             0.0000000000
     18488       160  CHL1      H22A            8.8140527804      -35.5391966252       -7.2084400000  MEMB      160             0.0000000000
     18489       160  CHL1      H22B           10.1552384014      -36.6200925723       -6.5602300000  MEMB      160             0.0000000000
     18490       160  CHL1      C23             9.8963134044      -34.8285115768       -5.3647500000  MEMB      160             0.0000000000
     18491       160  CHL1      H23A           10.9658969513      -34.6063082110       -5.1624400000  MEMB      160             0.0000000000
     18492       160  CHL1      H23B            9.4069162461      -33.8311358290       -5.3574100000  MEMB      160             0.0000000000
     18493       160  CHL1      C24             9.3295788286      -35.7650363882       -4.3116300000  MEMB      160             0.0000000000
     18494       160  CHL1      H24A            8.4674186525      -36.3163499873       -4.7441300000  MEMB      160             0.0000000000
     18495       160  CHL1      H24B           10.1392080679      -36.4895701186       -4.0795800000  MEMB      160             0.0000000000
     18496       160  CHL1      C25             8.9290365477      -35.1178371418       -2.9878600000  MEMB      160             0.0000000000
     18497       160  CHL1      H25             8.4339066831      -34.1275646522       -3.0801300000  MEMB      160             0.0000000000
     18498       160  CHL1      C26             8.0386508008      -36.0968063301       -2.2010900000  MEMB      160             0.0000000000
     18499       160  CHL1      H26A            8.6175667668      -37.0191489815       -2.4212500000  MEMB      160             0.0000000000
     18500       160  CHL1      H26B            8.0269312238      -35.8827354289       -1.1109700000  MEMB      160             0.0000000000
     18501       160  CHL1      H26C            7.0169862173      -36.0959777297       -2.6375800000  MEMB      160             0.0000000000
     18502       160  CHL1      C27            10.1501835987      -35.0795160339       -2.0719800000  MEMB      160             0.0000000000
     18503       160  CHL1      H27A           10.8257359010      -34.2555192408       -2.3866100000  MEMB      160             0.0000000000
     18504       160  CHL1      H27B            9.8243759455      -34.8966897501       -1.0256800000  MEMB      160             0.0000000000
     18505       160  CHL1      H27C           10.6780589732      -36.0541224301       -2.1481800000  MEMB      160             0.0000000000
     18506       161  SAPE      N              17.6180021135      -26.6255173221      -21.6635236354  MEMB      161             0.0000000000
     18507       161  SAPE      HN1            18.0095679159      -26.4668516594      -20.7132071161  MEMB      161             0.0000000000
     18508       161  SAPE      HN2            18.3640402785      -26.3015040617      -22.3116303195  MEMB      161             0.0000000000
     18509       161  SAPE      HN3            16.8105327678      -26.0126185859      -21.8957907983  MEMB      161             0.0000000000
     18510       161  SAPE      C12            17.0859569998      -28.0412931665      -21.7804841463  MEMB      161             0.0000000000
     18511       161  SAPE      H12A           16.6376471083      -28.0526618914      -22.7969534872  MEMB      161             0.0000000000
     18512       161  SAPE      H12B           16.3754613380      -28.1055891082      -20.9287898480  MEMB      161             0.0000000000
     18513       161  SAPE      C11            18.0990844077      -29.2056528212      -21.5482826548  MEMB      161             0.0000000000
     18514       161  SAPE      H11A           19.0524866714      -28.9981834338      -22.0796031198  MEMB      161             0.0000000000
     18515       161  SAPE      H11B           17.5857856159      -30.1346993946      -21.8764865131  MEMB      161             0.0000000000
     18516       161  SAPE      P              17.6359765511      -29.8438177591      -18.9938413596  MEMB      161             0.0000000000
     18517       161  SAPE      O13            16.9111362388      -28.6486679704      -18.4091431530  MEMB      161             0.0000000000
     18518       161  SAPE      O14            16.7665748746      -30.9789573421      -19.4092272177  MEMB      161             0.0000000000
     18519       161  SAPE      O12            18.5458152009      -29.3582693416      -20.1854527721  MEMB      161             0.0000000000
     18520       161  SAPE      O11            18.7159536149      -30.3753562770      -18.0100450755  MEMB      161             0.0000000000
     18521       161  SAPE      C1             19.7706571572      -31.2675634217      -18.3974964717  MEMB      161             0.0000000000
     18522       161  SAPE      HA             19.2731247783      -32.1231894771      -18.9021612424  MEMB      161             0.0000000000
     18523       161  SAPE      HB             20.4312865228      -30.6854016986      -19.0749754143  MEMB      161             0.0000000000
     18524       161  SAPE      C2             20.5161301980      -31.7530134709      -17.1671685726  MEMB      161             0.0000000000
     18525       161  SAPE      HS             21.1585625021      -32.6355492449      -17.3738848312  MEMB      161             0.0000000000
     18526       161  SAPE      O21            19.6439749121      -32.0760317745      -16.0493393316  MEMB      161             0.0000000000
     18527       161  SAPE      C21            18.5744580691      -32.7956669836      -16.2445060253  MEMB      161             0.0000000000
     18528       161  SAPE      O22            18.3729414086      -33.6063500585      -17.1275060935  MEMB      161             0.0000000000
     18529       161  SAPE      C22            17.4850535408      -32.2776768824      -15.2316660481  MEMB      161             0.0000000000
     18530       161  SAPE      H2R            16.8310522845      -33.1482723430      -15.0110608337  MEMB      161             0.0000000000
     18531       161  SAPE      H2S            18.0736140081      -32.0165992390      -14.3262621321  MEMB      161             0.0000000000
     18532       161  SAPE      C3             21.5540689698      -30.6577242739      -16.7799347830  MEMB      161             0.0000000000
     18533       161  SAPE      HX             22.2491236411      -30.4980310279      -17.6318255219  MEMB      161             0.0000000000
     18534       161  SAPE      HY             22.2470526203      -31.0161603575      -15.9889743638  MEMB      161             0.0000000000
     18535       161  SAPE      O31            20.8174583210      -29.4441260499      -16.3752143400  MEMB      161             0.0000000000
     18536       161  SAPE      C31            20.8390110357      -28.4587249812      -17.2137902435  MEMB      161             0.0000000000
     18537       161  SAPE      O32            21.4163699966      -28.4220670914      -18.2955897431  MEMB      161             0.0000000000
     18538       161  SAPE      C32            19.9376321593      -27.3652865463      -16.5424362511  MEMB      161             0.0000000000
     18539       161  SAPE      H2X            18.9847828481      -27.9124946474      -16.3782333230  MEMB      161             0.0000000000
     18540       161  SAPE      H2Y            19.8440527822      -26.5552589160      -17.2970349073  MEMB      161             0.0000000000
     18541       161  SAPE      C23            16.5473504616      -31.1567885171      -15.5726131427  MEMB      161             0.0000000000
     18542       161  SAPE      H3R            15.9691073355      -31.4616694681      -16.4709468714  MEMB      161             0.0000000000
     18543       161  SAPE      H3S            17.0750007652      -30.1798440649      -15.6111564695  MEMB      161             0.0000000000
     18544       161  SAPE      C24            15.4270361190      -30.9277607377      -14.4146828168  MEMB      161             0.0000000000
     18545       161  SAPE      H4R            16.0274973506      -30.4930780881      -13.5871450212  MEMB      161             0.0000000000
     18546       161  SAPE      H4S            15.0807766448      -31.9407885773      -14.1176984122  MEMB      161             0.0000000000
     18547       161  SAPE      C25            14.2734876319      -30.0692468972      -14.8918900413  MEMB      161             0.0000000000
     18548       161  SAPE      H5R            13.4769166570      -30.5723607491      -15.4596499518  MEMB      161             0.0000000000
     18549       161  SAPE      C26            14.0210859507      -28.7403311878      -14.6610830014  MEMB      161             0.0000000000
     18550       161  SAPE      H6R            13.1587531920      -28.1617523875      -15.0238894318  MEMB      161             0.0000000000
     18551       161  SAPE      C27            14.8882219774      -27.8062426019      -13.8159484979  MEMB      161             0.0000000000
     18552       161  SAPE      H7R            14.7304430079      -26.8056623150      -14.2723103837  MEMB      161             0.0000000000
     18553       161  SAPE      H7S            15.9348863107      -28.1425814881      -13.9762324429  MEMB      161             0.0000000000
     18554       161  SAPE      C28            14.5887717566      -27.6511297661      -12.3200497517  MEMB      161             0.0000000000
     18555       161  SAPE      H8R            13.5656305799      -27.3059165699      -12.1102638171  MEMB      161             0.0000000000
     18556       161  SAPE      C29            15.4558215557      -27.7877757100      -11.3235298965  MEMB      161             0.0000000000
     18557       161  SAPE      H9R            15.0859026672      -27.6190777301      -10.3014230552  MEMB      161             0.0000000000
     18558       161  SAPE      C210           16.9262373193      -28.1760086882      -11.2739583907  MEMB      161             0.0000000000
     18559       161  SAPE      H10R           17.2535510027      -28.0090474928      -10.2254777289  MEMB      161             0.0000000000
     18560       161  SAPE      H10S           17.5503071908      -27.4729323392      -11.8660231856  MEMB      161             0.0000000000
     18561       161  SAPE      C211           17.2577871803      -29.6858802515      -11.6334587990  MEMB      161             0.0000000000
     18562       161  SAPE      H11R           17.6122519370      -29.7397351726      -12.6733889884  MEMB      161             0.0000000000
     18563       161  SAPE      C212           17.3531876645      -30.8270643584      -10.8521576714  MEMB      161             0.0000000000
     18564       161  SAPE      H12R           17.5937670021      -31.8303871454      -11.2335563543  MEMB      161             0.0000000000
     18565       161  SAPE      C213           17.0978684088      -30.9163212943       -9.4083577067  MEMB      161             0.0000000000
     18566       161  SAPE      H13R           16.6290204169      -29.9671075975       -9.0714659751  MEMB      161             0.0000000000
     18567       161  SAPE      H13S           18.0734352964      -30.8350878173       -8.8830088872  MEMB      161             0.0000000000
     18568       161  SAPE      C214           16.2816982439      -32.1192864516       -9.0561695639  MEMB      161             0.0000000000
     18569       161  SAPE      H14R           15.4317823668      -32.5314179826       -9.6198995793  MEMB      161             0.0000000000
     18570       161  SAPE      C215           16.3381723377      -32.7363802767       -7.8557646901  MEMB      161             0.0000000000
     18571       161  SAPE      H15R           15.6971678784      -33.6235192382       -7.7457774286  MEMB      161             0.0000000000
     18572       161  SAPE      C216           17.1955644093      -32.2502328970       -6.7081631393  MEMB      161             0.0000000000
     18573       161  SAPE      H16R           17.5636161618      -31.2188579687       -6.8955791475  MEMB      161             0.0000000000
     18574       161  SAPE      H16S           18.0663762629      -32.9385816671       -6.6614307322  MEMB      161             0.0000000000
     18575       161  SAPE      C217           16.3031847002      -32.2671191454       -5.4003887931  MEMB      161             0.0000000000
     18576       161  SAPE      H17R           15.8669891917      -33.2842762142       -5.4975756150  MEMB      161             0.0000000000
     18577       161  SAPE      H17S           15.5082140003      -31.4992729376       -5.5133267226  MEMB      161             0.0000000000
     18578       161  SAPE      C218           17.2169862665      -32.1039012498       -4.1732306072  MEMB      161             0.0000000000
     18579       161  SAPE      H18R           17.6818685914      -31.0967958756       -4.2360319180  MEMB      161             0.0000000000
     18580       161  SAPE      H18S           17.8935885672      -32.9850950161       -4.1784856817  MEMB      161             0.0000000000
     18581       161  SAPE      C219           16.3611746358      -32.1145903828       -2.8251162199  MEMB      161             0.0000000000
     18582       161  SAPE      H19R           15.6329312387      -32.9499560474       -2.9035223005  MEMB      161             0.0000000000
     18583       161  SAPE      H19S           15.7992107573      -31.1605925186       -2.7334352123  MEMB      161             0.0000000000
     18584       161  SAPE      C220           17.3195433674      -32.2666848922       -1.6416947099  MEMB      161             0.0000000000
     18585       161  SAPE      H20R           17.8760634603      -31.3503569775       -1.3502341862  MEMB      161             0.0000000000
     18586       161  SAPE      H20S           18.1617864583      -32.8576452957       -2.0608766779  MEMB      161             0.0000000000
     18587       161  SAPE      H20T           16.7940824872      -32.7959990795       -0.8182630167  MEMB      161             0.0000000000
     18588       161  SAPE      C33            20.8221613448      -26.8189560462      -15.4462221457  MEMB      161             0.0000000000
     18589       161  SAPE      H3X            21.5240159775      -26.0822159005      -15.8922434179  MEMB      161             0.0000000000
     18590       161  SAPE      H3Y            21.3990991175      -27.5961900621      -14.9009044810  MEMB      161             0.0000000000
     18591       161  SAPE      C34            19.9235282187      -26.0576022584      -14.4818119115  MEMB      161             0.0000000000
     18592       161  SAPE      H4X            18.9957400621      -26.6630729416      -14.3985332319  MEMB      161             0.0000000000
     18593       161  SAPE      H4Y            19.7186363712      -25.1077073580      -15.0203654288  MEMB      161             0.0000000000
     18594       161  SAPE      C35            20.6561066338      -25.7153430362      -13.1735028629  MEMB      161             0.0000000000
     18595       161  SAPE      H5X            20.2082994025      -24.8338710971      -12.6667514375  MEMB      161             0.0000000000
     18596       161  SAPE      H5Y            21.6653321826      -25.2893034019      -13.3586357795  MEMB      161             0.0000000000
     18597       161  SAPE      C36            20.7196953362      -26.9024346371      -12.1504804736  MEMB      161             0.0000000000
     18598       161  SAPE      H6X            20.7863736797      -27.7678512034      -12.8439709516  MEMB      161             0.0000000000
     18599       161  SAPE      H6Y            19.9235552881      -27.0741407509      -11.3948356402  MEMB      161             0.0000000000
     18600       161  SAPE      C37            21.9081198848      -26.9845385930      -11.2243764504  MEMB      161             0.0000000000
     18601       161  SAPE      H7X            21.8147880669      -26.0657462581      -10.6067754032  MEMB      161             0.0000000000
     18602       161  SAPE      H7Y            22.8104731070      -26.8319553629      -11.8542956093  MEMB      161             0.0000000000
     18603       161  SAPE      C38            22.0899172475      -28.2682806710      -10.3586383237  MEMB      161             0.0000000000
     18604       161  SAPE      H8X            23.1040514079      -28.1944069255       -9.9109822747  MEMB      161             0.0000000000
     18605       161  SAPE      H8Y            22.0678894917      -29.0875572641      -11.1087195330  MEMB      161             0.0000000000
     18606       161  SAPE      C39            20.9211760353      -28.5121808955       -9.3770191895  MEMB      161             0.0000000000
     18607       161  SAPE      H9X            20.2842520052      -29.3609953217       -9.7059001153  MEMB      161             0.0000000000
     18608       161  SAPE      H9Y            20.3200444413      -27.5778756162       -9.3829924716  MEMB      161             0.0000000000
     18609       161  SAPE      C310           21.4444025347      -28.8341398852       -8.0446789928  MEMB      161             0.0000000000
     18610       161  SAPE      H10X           21.8280919642      -27.8805453097       -7.6230627842  MEMB      161             0.0000000000
     18611       161  SAPE      H10Y           22.3449085689      -29.4830883925       -7.9969738750  MEMB      161             0.0000000000
     18612       161  SAPE      C311           20.4178062355      -29.4534502286       -7.0629081474  MEMB      161             0.0000000000
     18613       161  SAPE      H11X           20.9628931441      -29.6917486506       -6.1246037936  MEMB      161             0.0000000000
     18614       161  SAPE      H11Y           20.1704547309      -30.4138225560       -7.5637307334  MEMB      161             0.0000000000
     18615       161  SAPE      C312           19.1287150632      -28.6731824499       -6.7525145099  MEMB      161             0.0000000000
     18616       161  SAPE      H12X           18.4816430815      -29.2660502549       -6.0712463877  MEMB      161             0.0000000000
     18617       161  SAPE      H12Y           18.6312316753      -28.4190339607       -7.7128478369  MEMB      161             0.0000000000
     18618       161  SAPE      C313           19.3757579370      -27.2969105243       -6.1805293095  MEMB      161             0.0000000000
     18619       161  SAPE      H13X           18.3917030123      -26.9487256981       -5.8001032221  MEMB      161             0.0000000000
     18620       161  SAPE      H13Y           19.7835431132      -26.5960124827       -6.9399858154  MEMB      161             0.0000000000
     18621       161  SAPE      C314           20.3573688069      -27.4135309530       -5.0042679360  MEMB      161             0.0000000000
     18622       161  SAPE      H14X           21.4156583894      -27.6123233758       -5.2778106558  MEMB      161             0.0000000000
     18623       161  SAPE      H14Y           20.0026010335      -28.2908899922       -4.4222868767  MEMB      161             0.0000000000
     18624       161  SAPE      C315           20.4503065297      -26.1616577460       -4.0899120248  MEMB      161             0.0000000000
     18625       161  SAPE      H15X           20.5129838542      -25.1784509516       -4.6034266817  MEMB      161             0.0000000000
     18626       161  SAPE      H15Y           21.2854242380      -26.2172852633       -3.3592919719  MEMB      161             0.0000000000
     18627       161  SAPE      C316           19.1498856319      -25.9155114262       -3.2981897137  MEMB      161             0.0000000000
     18628       161  SAPE      H16X           18.3888212275      -25.8651151192       -4.1060022824  MEMB      161             0.0000000000
     18629       161  SAPE      H16Y           19.2735195585      -24.9472201343       -2.7676722772  MEMB      161             0.0000000000
     18630       161  SAPE      C317           18.8090561557      -27.0871860218       -2.3701456013  MEMB      161             0.0000000000
     18631       161  SAPE      H17X           19.8225249758      -27.4567282264       -2.1043627988  MEMB      161             0.0000000000
     18632       161  SAPE      H17Y           18.3823041739      -27.8716608695       -3.0310559640  MEMB      161             0.0000000000
     18633       161  SAPE      C318           17.9464730284      -26.9287911114       -1.0789127618  MEMB      161             0.0000000000
     18634       161  SAPE      H18X           16.9076673607      -26.8508332924       -1.4650801734  MEMB      161             0.0000000000
     18635       161  SAPE      H18Y           18.2655875783      -26.0820644057       -0.4342870195  MEMB      161             0.0000000000
     18636       161  SAPE      H18Z           18.0317771990      -27.8532376218       -0.4686308600  MEMB      161             0.0000000000
     18637       162  CHL1      C3            -33.6800226446        6.2934920676      -17.3470450000  MEMB      162             0.0000000000
     18638       162  CHL1      H3            -34.5451377538        6.8083954476      -16.8771950000  MEMB      162             0.0000000000
     18639       162  CHL1      O3            -33.3581531554        6.7255562924      -18.6529550000  MEMB      162             0.0000000000
     18640       162  CHL1      H3'           -34.1140111360        6.5660314362      -19.2229050000  MEMB      162             0.0000000000
     18641       162  CHL1      C4            -32.5193099444        6.7559250384      -16.4126950000  MEMB      162             0.0000000000
     18642       162  CHL1      H4A           -31.5557924514        6.3556124706      -16.7944250000  MEMB      162             0.0000000000
     18643       162  CHL1      H4B           -32.4165832167        7.8617365534      -16.3819850000  MEMB      162             0.0000000000
     18644       162  CHL1      C5            -32.8724467666        6.2965063351      -14.9748250000  MEMB      162             0.0000000000
     18645       162  CHL1      C6            -32.9611774080        7.1701349879      -13.9417350000  MEMB      162             0.0000000000
     18646       162  CHL1      H6            -32.7286123482        8.1967048691      -14.2612250000  MEMB      162             0.0000000000
     18647       162  CHL1      C7            -33.2648621466        6.8828487000      -12.4937350000  MEMB      162             0.0000000000
     18648       162  CHL1      H7A           -32.8198935303        7.6423962449      -11.8159350000  MEMB      162             0.0000000000
     18649       162  CHL1      H7B           -34.3523947359        6.9415297677      -12.2743050000  MEMB      162             0.0000000000
     18650       162  CHL1      C8            -32.8424570425        5.4454842554      -12.1980950000  MEMB      162             0.0000000000
     18651       162  CHL1      H8            -31.7454903245        5.4651952934      -12.3730050000  MEMB      162             0.0000000000
     18652       162  CHL1      C14           -33.2400445471        4.9999074352      -10.8106050000  MEMB      162             0.0000000000
     18653       162  CHL1      H14           -34.3477133782        5.0820192320      -10.7854450000  MEMB      162             0.0000000000
     18654       162  CHL1      C15           -32.6494545158        5.8966779487       -9.6537350000  MEMB      162             0.0000000000
     18655       162  CHL1      H15A          -31.5856321940        6.2125879473       -9.7067250000  MEMB      162             0.0000000000
     18656       162  CHL1      H15B          -33.3346248900        6.7675141859       -9.5730150000  MEMB      162             0.0000000000
     18657       162  CHL1      C16           -32.8536917917        4.9530601938       -8.4068750000  MEMB      162             0.0000000000
     18658       162  CHL1      H16A          -31.9157599823        4.9537547274       -7.8113950000  MEMB      162             0.0000000000
     18659       162  CHL1      H16B          -33.6167057657        5.3995707146       -7.7340050000  MEMB      162             0.0000000000
     18660       162  CHL1      C17           -33.2539537508        3.5323788603       -8.9510950000  MEMB      162             0.0000000000
     18661       162  CHL1      H17           -34.3598354549        3.6310923009       -8.9912050000  MEMB      162             0.0000000000
     18662       162  CHL1      C13           -32.8299235094        3.5516155658      -10.4120950000  MEMB      162             0.0000000000
     18663       162  CHL1      C18           -31.2676034082        3.3098718217      -10.4402450000  MEMB      162             0.0000000000
     18664       162  CHL1      H18A          -30.8815364022        3.5737098912      -11.4480550000  MEMB      162             0.0000000000
     18665       162  CHL1      H18B          -30.7415784810        3.9678016271       -9.7158550000  MEMB      162             0.0000000000
     18666       162  CHL1      H18C          -31.0145898958        2.2748508890      -10.1255350000  MEMB      162             0.0000000000
     18667       162  CHL1      C12           -33.5921225262        2.6842523355      -11.4392850000  MEMB      162             0.0000000000
     18668       162  CHL1      H12A          -33.3085171747        1.6149473340      -11.3368850000  MEMB      162             0.0000000000
     18669       162  CHL1      H12B          -34.6792874942        2.8019279356      -11.2429350000  MEMB      162             0.0000000000
     18670       162  CHL1      C11           -33.2386506682        3.0409013631      -12.8851550000  MEMB      162             0.0000000000
     18671       162  CHL1      H11A          -32.1848545746        2.7482942792      -13.0806050000  MEMB      162             0.0000000000
     18672       162  CHL1      H11B          -33.7988654840        2.4375948998      -13.6311550000  MEMB      162             0.0000000000
     18673       162  CHL1      C9            -33.4334745940        4.4828079932      -13.2775650000  MEMB      162             0.0000000000
     18674       162  CHL1      H9            -34.5339244813        4.6306151418      -13.2389150000  MEMB      162             0.0000000000
     18675       162  CHL1      C10           -33.0559317464        4.8194352736      -14.7538650000  MEMB      162             0.0000000000
     18676       162  CHL1      C19           -31.6782332311        4.0615350158      -15.1894950000  MEMB      162             0.0000000000
     18677       162  CHL1      H19A          -31.7543923575        2.9581015378      -15.0849050000  MEMB      162             0.0000000000
     18678       162  CHL1      H19B          -31.3631509766        4.1869185886      -16.2474750000  MEMB      162             0.0000000000
     18679       162  CHL1      H19C          -30.8217164522        4.4058901205      -14.5713450000  MEMB      162             0.0000000000
     18680       162  CHL1      C1            -34.2148613144        4.3103272330      -15.7277750000  MEMB      162             0.0000000000
     18681       162  CHL1      H1A           -34.3807696960        3.2145996613      -15.6492150000  MEMB      162             0.0000000000
     18682       162  CHL1      H1B           -35.0956312356        4.9115794802      -15.4162350000  MEMB      162             0.0000000000
     18683       162  CHL1      C2            -33.9891656661        4.8068796299      -17.1476350000  MEMB      162             0.0000000000
     18684       162  CHL1      H2A           -34.8505704810        4.6009180341      -17.8183750000  MEMB      162             0.0000000000
     18685       162  CHL1      H2B           -33.1384728737        4.2571033122      -17.6041350000  MEMB      162             0.0000000000
     18686       162  CHL1      C20           -32.8760935562        2.3760125181       -7.9699050000  MEMB      162             0.0000000000
     18687       162  CHL1      H20           -31.7671150500        2.4328939601       -7.9345250000  MEMB      162             0.0000000000
     18688       162  CHL1      C21           -33.2115561839        0.9216211112       -8.4544550000  MEMB      162             0.0000000000
     18689       162  CHL1      H21A          -34.3007589152        0.7855472931       -8.6260850000  MEMB      162             0.0000000000
     18690       162  CHL1      H21B          -32.7502279053        0.1857945672       -7.7615950000  MEMB      162             0.0000000000
     18691       162  CHL1      H21C          -32.7651622343        0.7923514753       -9.4635850000  MEMB      162             0.0000000000
     18692       162  CHL1      C22           -33.2799547277        2.5989855332       -6.5006450000  MEMB      162             0.0000000000
     18693       162  CHL1      H22A          -32.8069883639        1.7912599803       -5.9021250000  MEMB      162             0.0000000000
     18694       162  CHL1      H22B          -32.7211488774        3.4657863497       -6.0874650000  MEMB      162             0.0000000000
     18695       162  CHL1      C23           -34.7752371498        2.7754477755       -6.3429050000  MEMB      162             0.0000000000
     18696       162  CHL1      H23A          -35.1195916350        3.8262197455       -6.4506450000  MEMB      162             0.0000000000
     18697       162  CHL1      H23B          -35.4000259454        2.1443987883       -7.0105350000  MEMB      162             0.0000000000
     18698       162  CHL1      C24           -35.2956396422        2.3902249891       -4.9186450000  MEMB      162             0.0000000000
     18699       162  CHL1      H24A          -34.7669709053        2.9468949408       -4.1155650000  MEMB      162             0.0000000000
     18700       162  CHL1      H24B          -36.3422076945        2.7247119001       -4.7538950000  MEMB      162             0.0000000000
     18701       162  CHL1      C25           -35.2261704003        0.8961914445       -4.6508250000  MEMB      162             0.0000000000
     18702       162  CHL1      H25           -34.2698829976        0.5312614868       -5.0828650000  MEMB      162             0.0000000000
     18703       162  CHL1      C26           -35.0644980164        0.6326531033       -3.1132750000  MEMB      162             0.0000000000
     18704       162  CHL1      H26A          -34.7956142487       -0.4432204803       -3.0460250000  MEMB      162             0.0000000000
     18705       162  CHL1      H26B          -34.3269338579        1.3447191709       -2.6851550000  MEMB      162             0.0000000000
     18706       162  CHL1      H26C          -36.0219016668        0.7239517162       -2.5570650000  MEMB      162             0.0000000000
     18707       162  CHL1      C27           -36.3653548047        0.1241522049       -5.1529750000  MEMB      162             0.0000000000
     18708       162  CHL1      H27A          -37.3362989177        0.5517744727       -4.8232550000  MEMB      162             0.0000000000
     18709       162  CHL1      H27B          -36.4800032434        0.3098421250       -6.2423250000  MEMB      162             0.0000000000
     18710       162  CHL1      H27C          -36.2180689634       -0.9550166470       -4.9338350000  MEMB      162             0.0000000000
     18711       163  OSM       N               2.8553149966      -35.1552095310      -22.6342886369  MEMB      163             0.0000000000
     18712       163  OSM       C15             1.8389497458      -36.2464547355      -22.9758750030  MEMB      163             0.0000000000
     18713       163  OSM       H15A            0.8753179964      -35.7977677616      -22.7848419891  MEMB      163             0.0000000000
     18714       163  OSM       H15B            1.9610471062      -37.0883700768      -22.3105399550  MEMB      163             0.0000000000
     18715       163  OSM       H15C            1.9983565222      -36.4428860316      -24.0258293838  MEMB      163             0.0000000000
     18716       163  OSM       C14             4.2848138009      -35.7131425849      -22.8149144387  MEMB      163             0.0000000000
     18717       163  OSM       H14A            4.5846567164      -35.8415578657      -23.8444792747  MEMB      163             0.0000000000
     18718       163  OSM       H14B            4.2493389657      -36.7032274975      -22.3849452207  MEMB      163             0.0000000000
     18719       163  OSM       H14C            5.0639599557      -35.1513386108      -22.3212468614  MEMB      163             0.0000000000
     18720       163  OSM       C13             2.6423121710      -33.9425296180      -23.4202919361  MEMB      163             0.0000000000
     18721       163  OSM       H13A            2.9460427766      -34.1454948472      -24.4366348567  MEMB      163             0.0000000000
     18722       163  OSM       H13B            3.2442795384      -33.1132700611      -23.0791702505  MEMB      163             0.0000000000
     18723       163  OSM       H13C            1.5910073954      -33.7030646646      -23.4820568485  MEMB      163             0.0000000000
     18724       163  OSM       C12             2.7124104970      -34.8805160918      -21.1369970209  MEMB      163             0.0000000000
     18725       163  OSM       H12A            1.7574132640      -34.3838791237      -21.0490663540  MEMB      163             0.0000000000
     18726       163  OSM       H12B            3.5262557669      -34.2437978753      -20.8229177785  MEMB      163             0.0000000000
     18727       163  OSM       C11             2.5913227323      -36.0233975069      -20.1275124651  MEMB      163             0.0000000000
     18728       163  OSM       H11A            1.5874312518      -36.4993062366      -20.1216973646  MEMB      163             0.0000000000
     18729       163  OSM       H11B            2.7484538894      -35.6541477402      -19.0915175686  MEMB      163             0.0000000000
     18730       163  OSM       P               5.1063778155      -36.8547717157      -19.5973939256  MEMB      163             0.0000000000
     18731       163  OSM       O13             5.9117821648      -37.9856451044      -20.1100793494  MEMB      163             0.0000000000
     18732       163  OSM       O14             5.6488729204      -35.5627472281      -20.0836219287  MEMB      163             0.0000000000
     18733       163  OSM       O11             5.0884288274      -36.7822182076      -17.9417058521  MEMB      163             0.0000000000
     18734       163  OSM       O12             3.5900111181      -37.0350984123      -20.1573194472  MEMB      163             0.0000000000
     18735       163  OSM       C1S             4.2352959352      -37.5797081572      -17.1702887023  MEMB      163             0.0000000000
     18736       163  OSM       H1S             4.4230749627      -38.6613418848      -17.3409591807  MEMB      163             0.0000000000
     18737       163  OSM       H1T             3.1785700889      -37.3312033169      -17.4067137226  MEMB      163             0.0000000000
     18738       163  OSM       NF              3.6590653130      -38.2866212522      -14.9168601426  MEMB      163             0.0000000000
     18739       163  OSM       HNF             2.7391191857      -38.0031802641      -14.6573037765  MEMB      163             0.0000000000
     18740       163  OSM       C2S             4.4129766031      -37.2846938846      -15.6599157509  MEMB      163             0.0000000000
     18741       163  OSM       H2S             5.4312991822      -37.3917915093      -15.2287893019  MEMB      163             0.0000000000
     18742       163  OSM       C3S             3.8886873760      -35.8859523322      -15.3473245256  MEMB      163             0.0000000000
     18743       163  OSM       H3S             2.7939828855      -35.8162767752      -15.5236432494  MEMB      163             0.0000000000
     18744       163  OSM       O3              4.6354018074      -34.7917965779      -15.9978692679  MEMB      163             0.0000000000
     18745       163  OSM       HO3             5.3862132740      -35.2398630947      -16.3942511116  MEMB      163             0.0000000000
     18746       163  OSM       C4S             4.0827672598      -35.7432217942      -13.8812909853  MEMB      163             0.0000000000
     18747       163  OSM       H4S             3.1005281506      -35.6573311220      -13.3936136745  MEMB      163             0.0000000000
     18748       163  OSM       C5S             5.2445336935      -35.5962148899      -13.1967878883  MEMB      163             0.0000000000
     18749       163  OSM       H5S             6.1036448360      -35.4306751514      -13.8635144722  MEMB      163             0.0000000000
     18750       163  OSM       C6S             5.4430142563      -35.3959959340      -11.6946642296  MEMB      163             0.0000000000
     18751       163  OSM       H6S             5.7052825233      -34.3291885496      -11.5289579206  MEMB      163             0.0000000000
     18752       163  OSM       H6T             6.2447427115      -36.0691182375      -11.3225639144  MEMB      163             0.0000000000
     18753       163  OSM       C7S             4.2184351465      -35.7550813017      -10.7937095288  MEMB      163             0.0000000000
     18754       163  OSM       H7S             4.0523502824      -36.8394586292      -10.9693869464  MEMB      163             0.0000000000
     18755       163  OSM       H7T             3.4218908509      -35.1014119518      -11.2091057716  MEMB      163             0.0000000000
     18756       163  OSM       C8S             4.5173748559      -35.5887439313       -9.2885024645  MEMB      163             0.0000000000
     18757       163  OSM       H8S             4.9828344874      -34.6054876821       -9.0629467033  MEMB      163             0.0000000000
     18758       163  OSM       H8T             5.3175565259      -36.3401545807       -9.1170030220  MEMB      163             0.0000000000
     18759       163  OSM       C9S             3.3028163936      -35.6668573389       -8.4450656016  MEMB      163             0.0000000000
     18760       163  OSM       H9S             2.9617036068      -36.7232371730       -8.4900641638  MEMB      163             0.0000000000
     18761       163  OSM       H9T             2.4782917814      -35.0731138740       -8.8944525787  MEMB      163             0.0000000000
     18762       163  OSM       C10S            3.4973155884      -35.4679348367       -6.9488995310  MEMB      163             0.0000000000
     18763       163  OSM       H10S            3.9317819522      -34.4599761952       -6.7769140401  MEMB      163             0.0000000000
     18764       163  OSM       H10T            4.1780399365      -36.2685972498       -6.5885179290  MEMB      163             0.0000000000
     18765       163  OSM       C11S            2.1425271629      -35.5023252243       -6.2156080265  MEMB      163             0.0000000000
     18766       163  OSM       H11S            1.3995090649      -34.8219260238       -6.6839048518  MEMB      163             0.0000000000
     18767       163  OSM       H11T            2.3143945900      -35.0858416217       -5.2000672057  MEMB      163             0.0000000000
     18768       163  OSM       C12S            1.5347858513      -36.9512115659       -6.0777057959  MEMB      163             0.0000000000
     18769       163  OSM       H12S            2.0900882850      -37.6616468267       -5.4286740734  MEMB      163             0.0000000000
     18770       163  OSM       H12T            1.4590344892      -37.4466826824       -7.0692152696  MEMB      163             0.0000000000
     18771       163  OSM       C13S            0.1424425106      -36.9681525727       -5.4047600418  MEMB      163             0.0000000000
     18772       163  OSM       H13S           -0.3906557909      -37.8336890365       -5.8530613337  MEMB      163             0.0000000000
     18773       163  OSM       H13T           -0.4608337618      -36.0474006845       -5.5550743385  MEMB      163             0.0000000000
     18774       163  OSM       C14S            0.1487786527      -37.2299456634       -3.8772995480  MEMB      163             0.0000000000
     18775       163  OSM       H14S            0.3155680033      -38.3197442191       -3.7400343528  MEMB      163             0.0000000000
     18776       163  OSM       H14T           -0.8836187199      -37.0769841282       -3.4964055942  MEMB      163             0.0000000000
     18777       163  OSM       C15S            1.1525254459      -36.4623858345       -3.0210948244  MEMB      163             0.0000000000
     18778       163  OSM       H15S            0.9153125927      -35.3770057241       -3.0202689199  MEMB      163             0.0000000000
     18779       163  OSM       H15T            2.1660504152      -36.6052433185       -3.4531599407  MEMB      163             0.0000000000
     18780       163  OSM       C16S            1.2324057054      -36.9309550095       -1.5829847009  MEMB      163             0.0000000000
     18781       163  OSM       H16S            1.5390791664      -37.9938238866       -1.4801154074  MEMB      163             0.0000000000
     18782       163  OSM       H16T            0.1717105638      -36.9667747151       -1.2544052547  MEMB      163             0.0000000000
     18783       163  OSM       C17S            2.1886791905      -36.1556570246       -0.5956833672  MEMB      163             0.0000000000
     18784       163  OSM       H17S            3.1862101547      -36.2752518102       -1.0699726108  MEMB      163             0.0000000000
     18785       163  OSM       H17T            2.0607587971      -36.6736290765        0.3788233310  MEMB      163             0.0000000000
     18786       163  OSM       C18S            1.8033280122      -34.6876968714       -0.4645004247  MEMB      163             0.0000000000
     18787       163  OSM       H18S            0.7120016007      -34.6363317966       -0.2627847081  MEMB      163             0.0000000000
     18788       163  OSM       H18T            1.8718963084      -34.1497146897       -1.4341355898  MEMB      163             0.0000000000
     18789       163  OSM       H18U            2.5399924896      -34.2596989496        0.2485661665  MEMB      163             0.0000000000
     18790       163  OSM       C1F             4.0842480200      -39.5767365498      -14.8842423663  MEMB      163             0.0000000000
     18791       163  OSM       OF              5.2752218960      -39.9031848078      -15.0812592239  MEMB      163             0.0000000000
     18792       163  OSM       C2F             3.1737285385      -40.5836523242      -14.4369578520  MEMB      163             0.0000000000
     18793       163  OSM       H2F             3.1088736147      -41.3874778460      -15.2011433204  MEMB      163             0.0000000000
     18794       163  OSM       H2G             2.1838830590      -40.0827998212      -14.3763452447  MEMB      163             0.0000000000
     18795       163  OSM       C3F             3.7322573717      -41.1355275604      -13.0729458579  MEMB      163             0.0000000000
     18796       163  OSM       H3F             4.6470716376      -41.7064638596      -13.3402800904  MEMB      163             0.0000000000
     18797       163  OSM       H3G             2.8415603115      -41.7863290583      -12.9408940191  MEMB      163             0.0000000000
     18798       163  OSM       C4F             3.8820489147      -40.1622391507      -11.9043151432  MEMB      163             0.0000000000
     18799       163  OSM       H4F             3.0606606515      -39.4539742187      -12.1451538823  MEMB      163             0.0000000000
     18800       163  OSM       H4G             4.9256997470      -39.7969290165      -12.0123086971  MEMB      163             0.0000000000
     18801       163  OSM       C5F             3.6951223649      -40.8170035945      -10.5096623879  MEMB      163             0.0000000000
     18802       163  OSM       H5F             4.6548286788      -41.3378116482      -10.3046159462  MEMB      163             0.0000000000
     18803       163  OSM       H5G             2.8483091795      -41.5281058295      -10.6171881981  MEMB      163             0.0000000000
     18804       163  OSM       C6F             3.3369419957      -39.8181178770       -9.3761573347  MEMB      163             0.0000000000
     18805       163  OSM       H6F             2.5870845229      -39.0590944483       -9.6858641605  MEMB      163             0.0000000000
     18806       163  OSM       H6G             4.1808499591      -39.1324159207       -9.1482253736  MEMB      163             0.0000000000
     18807       163  OSM       C7F             2.7939810606      -40.4324297524       -8.0699337122  MEMB      163             0.0000000000
     18808       163  OSM       H7F             2.0553773504      -41.1863443063       -8.4169183045  MEMB      163             0.0000000000
     18809       163  OSM       H7G             2.3181312018      -39.6563097932       -7.4331246745  MEMB      163             0.0000000000
     18810       163  OSM       C8F             3.8438122220      -41.3117983206       -7.2809066528  MEMB      163             0.0000000000
     18811       163  OSM       H8F             4.1888702441      -42.1846821761       -7.8753224632  MEMB      163             0.0000000000
     18812       163  OSM       H8G             3.1737771851      -41.7793803226       -6.5280844276  MEMB      163             0.0000000000
     18813       163  OSM       C9F             4.9446520527      -40.5502159351       -6.6592239675  MEMB      163             0.0000000000
     18814       163  OSM       H9F             5.8713048102      -40.4406224657       -7.2417224364  MEMB      163             0.0000000000
     18815       163  OSM       C10F            5.0971828175      -40.2375319648       -5.3416772883  MEMB      163             0.0000000000
     18816       163  OSM       H10F            6.0525641538      -39.7824322179       -5.0414597119  MEMB      163             0.0000000000
     18817       163  OSM       C11F            4.1417926667      -40.5370200220       -4.2413988141  MEMB      163             0.0000000000
     18818       163  OSM       H11F            4.6036776412      -41.3912673642       -3.7017280244  MEMB      163             0.0000000000
     18819       163  OSM       H11G            3.1441919358      -40.9582726744       -4.4897132803  MEMB      163             0.0000000000
     18820       163  OSM       C12F            3.7453461523      -39.3613677905       -3.3965695794  MEMB      163             0.0000000000
     18821       163  OSM       H12F            3.0211139356      -39.6944316365       -2.6226973282  MEMB      163             0.0000000000
     18822       163  OSM       H12G            3.2262241133      -38.5547812755       -3.9571518271  MEMB      163             0.0000000000
     18823       163  OSM       C13F            4.8901411218      -38.6883528982       -2.5941821361  MEMB      163             0.0000000000
     18824       163  OSM       H13F            4.6352215955      -37.6336221883       -2.3556866483  MEMB      163             0.0000000000
     18825       163  OSM       H13G            5.8220314864      -38.5741823512       -3.1882083431  MEMB      163             0.0000000000
     18826       163  OSM       C14F            5.0605615840      -39.3647334683       -1.2448806106  MEMB      163             0.0000000000
     18827       163  OSM       H14F            5.3693163783      -40.4184752590       -1.4140542991  MEMB      163             0.0000000000
     18828       163  OSM       H14G            4.1019956074      -39.3035506323       -0.6865540923  MEMB      163             0.0000000000
     18829       163  OSM       C15F            6.1993329203      -38.7014320046       -0.3664991528  MEMB      163             0.0000000000
     18830       163  OSM       H15F            6.3251411409      -37.6398272580       -0.6689712637  MEMB      163             0.0000000000
     18831       163  OSM       H15G            7.1069515369      -39.2645858126       -0.6721248629  MEMB      163             0.0000000000
     18832       163  OSM       C16F            6.1906811251      -38.9700836481        1.0777607769  MEMB      163             0.0000000000
     18833       163  OSM       H16F            6.3284650728      -40.0584433676        1.2532881082  MEMB      163             0.0000000000
     18834       163  OSM       H16G            5.2025124915      -38.6976750448        1.5062909530  MEMB      163             0.0000000000
     18835       163  OSM       C17F            7.1348251947      -37.9964841089        1.8796119894  MEMB      163             0.0000000000
     18836       163  OSM       H17F            7.8667519964      -37.9277209444        1.0466198969  MEMB      163             0.0000000000
     18837       163  OSM       H17G            7.4766932683      -38.6971268803        2.6711595835  MEMB      163             0.0000000000
     18838       163  OSM       C18F            6.6553944074      -36.6519583731        2.4212746267  MEMB      163             0.0000000000
     18839       163  OSM       H18F            6.4391607001      -35.9093247171        1.6237396043  MEMB      163             0.0000000000
     18840       163  OSM       H18G            7.4241900197      -36.1687471938        3.0614159277  MEMB      163             0.0000000000
     18841       163  OSM       H18H            5.6892047271      -36.7734827341        2.9560915688  MEMB      163             0.0000000000
     18842       164  SLPC      N              31.3542532807       -7.4793923109      -15.6265129533  MEMB      164             0.0000000000
     18843       164  SLPC      C13            32.3358053245       -7.4680836618      -14.4769866963  MEMB      164             0.0000000000
     18844       164  SLPC      H13A           32.8675186871       -8.4067284181      -14.4257328433  MEMB      164             0.0000000000
     18845       164  SLPC      H13B           33.1585970434       -6.8218658179      -14.7449723205  MEMB      164             0.0000000000
     18846       164  SLPC      H13C           31.9099909080       -6.9367062904      -13.6387026655  MEMB      164             0.0000000000
     18847       164  SLPC      C14            31.1670769538       -6.0715245798      -16.1703954875  MEMB      164             0.0000000000
     18848       164  SLPC      H14A           32.1221825447       -5.6223060644      -16.3992537536  MEMB      164             0.0000000000
     18849       164  SLPC      H14B           30.5818973252       -6.1159689113      -17.0770318542  MEMB      164             0.0000000000
     18850       164  SLPC      H14C           30.5992592731       -5.4857112866      -15.4627192044  MEMB      164             0.0000000000
     18851       164  SLPC      C15            29.9792825019       -8.0134088288      -15.0732698788  MEMB      164             0.0000000000
     18852       164  SLPC      H15A           30.1124258662       -8.9714634909      -14.5928490256  MEMB      164             0.0000000000
     18853       164  SLPC      H15B           29.6100678277       -7.2310313140      -14.4267671161  MEMB      164             0.0000000000
     18854       164  SLPC      H15C           29.2356667989       -8.0171023347      -15.8564828045  MEMB      164             0.0000000000
     18855       164  SLPC      C12            31.7636933360       -8.3743548881      -16.7166621082  MEMB      164             0.0000000000
     18856       164  SLPC      H12A           31.2460208806       -8.0469821507      -17.6061800945  MEMB      164             0.0000000000
     18857       164  SLPC      H12B           31.5196817810       -9.3938263991      -16.4567842001  MEMB      164             0.0000000000
     18858       164  SLPC      C11            33.2112282274       -8.4792392016      -17.2225209774  MEMB      164             0.0000000000
     18859       164  SLPC      H11A           33.0284404776       -9.0153021035      -18.1783171023  MEMB      164             0.0000000000
     18860       164  SLPC      H11B           33.9938385886       -9.0366425996      -16.6647186341  MEMB      164             0.0000000000
     18861       164  SLPC      P              34.7877038794       -6.7710549932      -18.3757986038  MEMB      164             0.0000000000
     18862       164  SLPC      O13            34.4704385504       -7.0857693283      -19.7603757182  MEMB      164             0.0000000000
     18863       164  SLPC      O14            35.2490741153       -5.4021955781      -18.1240115341  MEMB      164             0.0000000000
     18864       164  SLPC      O12            33.5451895342       -7.1147477317      -17.5240607067  MEMB      164             0.0000000000
     18865       164  SLPC      O11            35.9118803780       -7.8045495583      -17.9294053473  MEMB      164             0.0000000000
     18866       164  SLPC      C1             36.6761037518       -7.5696904274      -16.7264834937  MEMB      164             0.0000000000
     18867       164  SLPC      HA             37.2897232355       -6.6588208259      -16.8941397120  MEMB      164             0.0000000000
     18868       164  SLPC      HB             36.0249044454       -7.3067350973      -15.8656031825  MEMB      164             0.0000000000
     18869       164  SLPC      C2             37.5207506010       -8.7267765299      -16.3285674659  MEMB      164             0.0000000000
     18870       164  SLPC      HS             38.0082444737       -9.1018329470      -17.2537719570  MEMB      164             0.0000000000
     18871       164  SLPC      O21            36.7246617378       -9.7254439289      -15.7573025120  MEMB      164             0.0000000000
     18872       164  SLPC      C21            36.4354344331      -10.7629597305      -16.5202524452  MEMB      164             0.0000000000
     18873       164  SLPC      O22            37.0108340428      -11.0111930677      -17.5467171818  MEMB      164             0.0000000000
     18874       164  SLPC      C22            35.4389819943      -11.7497599655      -15.7929349334  MEMB      164             0.0000000000
     18875       164  SLPC      H2R            34.6123959817      -12.0197980139      -16.4844231690  MEMB      164             0.0000000000
     18876       164  SLPC      H2S            36.0356906121      -12.6454034131      -15.5171040630  MEMB      164             0.0000000000
     18877       164  SLPC      C3             38.5575425230       -8.4908894375      -15.1950660688  MEMB      164             0.0000000000
     18878       164  SLPC      HX             39.3495191301       -7.7465246067      -15.4253158287  MEMB      164             0.0000000000
     18879       164  SLPC      HY             38.9529582411       -9.5190599833      -15.0507298644  MEMB      164             0.0000000000
     18880       164  SLPC      O31            37.9455820205       -8.0150874516      -14.0051195701  MEMB      164             0.0000000000
     18881       164  SLPC      C31            38.0028678158       -6.6639222256      -13.7891468556  MEMB      164             0.0000000000
     18882       164  SLPC      O32            38.3523725878       -5.7933447292      -14.5751741222  MEMB      164             0.0000000000
     18883       164  SLPC      C32            37.6491268526       -6.5299890794      -12.2075185003  MEMB      164             0.0000000000
     18884       164  SLPC      H2X            38.4902449238       -7.1035477150      -11.7626906566  MEMB      164             0.0000000000
     18885       164  SLPC      H2Y            36.6623610470       -7.0333056125      -12.1221561911  MEMB      164             0.0000000000
     18886       164  SLPC      C23            34.6889765817      -11.1194307000      -14.6463020084  MEMB      164             0.0000000000
     18887       164  SLPC      H3R            33.9779759241      -10.3459495681      -15.0075855581  MEMB      164             0.0000000000
     18888       164  SLPC      H3S            35.3558673350      -10.5183944926      -13.9918302653  MEMB      164             0.0000000000
     18889       164  SLPC      C24            34.0216455246      -12.1030901842      -13.7088944071  MEMB      164             0.0000000000
     18890       164  SLPC      H4R            34.7786400103      -12.8537454276      -13.3961697101  MEMB      164             0.0000000000
     18891       164  SLPC      H4S            33.2958730906      -12.5200215024      -14.4394721737  MEMB      164             0.0000000000
     18892       164  SLPC      C25            33.2099993840      -11.3275115206      -12.6398139463  MEMB      164             0.0000000000
     18893       164  SLPC      H5R            32.9172308150      -12.0664560237      -11.8635612332  MEMB      164             0.0000000000
     18894       164  SLPC      H5S            32.2392452586      -10.9266963934      -13.0021742386  MEMB      164             0.0000000000
     18895       164  SLPC      C26            33.9443161604      -10.2823304443      -11.8209939755  MEMB      164             0.0000000000
     18896       164  SLPC      H6R            33.2360905167       -9.7731356093      -11.1329109565  MEMB      164             0.0000000000
     18897       164  SLPC      H6S            34.2253890842       -9.4444385775      -12.4942368210  MEMB      164             0.0000000000
     18898       164  SLPC      C27            35.1506064825      -10.7692287947      -11.0716869993  MEMB      164             0.0000000000
     18899       164  SLPC      H7R            35.9373850050      -11.1407487721      -11.7625367759  MEMB      164             0.0000000000
     18900       164  SLPC      H7S            34.8344027140      -11.4866333885      -10.2844975995  MEMB      164             0.0000000000
     18901       164  SLPC      C28            35.8143833991       -9.6500858193      -10.2861309026  MEMB      164             0.0000000000
     18902       164  SLPC      H8R            35.0602810943       -9.2473845998       -9.5765658397  MEMB      164             0.0000000000
     18903       164  SLPC      H8S            36.1399552248       -8.8738106624      -11.0111968499  MEMB      164             0.0000000000
     18904       164  SLPC      C29            37.0202033530      -10.1701040585       -9.5353795245  MEMB      164             0.0000000000
     18905       164  SLPC      H9R            37.7864231029      -10.7500756252      -10.0706740587  MEMB      164             0.0000000000
     18906       164  SLPC      C210           37.2749647056       -9.8747488697       -8.2619696583  MEMB      164             0.0000000000
     18907       164  SLPC      H10R           38.2180076807      -10.3306885176       -7.9261281868  MEMB      164             0.0000000000
     18908       164  SLPC      C211           36.4750871257       -9.0674024200       -7.2436814064  MEMB      164             0.0000000000
     18909       164  SLPC      H11R           36.9725294103       -9.2293674594       -6.2635596243  MEMB      164             0.0000000000
     18910       164  SLPC      H11S           35.4147812307       -9.3720587424       -7.1123149584  MEMB      164             0.0000000000
     18911       164  SLPC      C212           36.6262800169       -7.5724662049       -7.5158064200  MEMB      164             0.0000000000
     18912       164  SLPC      H12R           36.5976268979       -7.3568122115       -8.5940785659  MEMB      164             0.0000000000
     18913       164  SLPC      C213           36.7134166252       -6.4478632311       -6.6825822894  MEMB      164             0.0000000000
     18914       164  SLPC      H13R           36.7447233144       -5.4163927449       -7.0634876887  MEMB      164             0.0000000000
     18915       164  SLPC      C214           36.5765133080       -6.6267450766       -5.1890156338  MEMB      164             0.0000000000
     18916       164  SLPC      H14R           37.1578748489       -7.4874279357       -4.7945988981  MEMB      164             0.0000000000
     18917       164  SLPC      H14S           35.4942738881       -6.8527276585       -5.0794229091  MEMB      164             0.0000000000
     18918       164  SLPC      C215           36.9665701865       -5.3546412554       -4.5185523242  MEMB      164             0.0000000000
     18919       164  SLPC      H15R           36.6593589486       -4.4255386305       -5.0445843113  MEMB      164             0.0000000000
     18920       164  SLPC      H15S           38.0740022267       -5.2819181094       -4.4672998749  MEMB      164             0.0000000000
     18921       164  SLPC      C216           36.5642323472       -5.3989473938       -3.0130958733  MEMB      164             0.0000000000
     18922       164  SLPC      H16R           35.5294241849       -5.8023198204       -3.0410946329  MEMB      164             0.0000000000
     18923       164  SLPC      H16S           36.5289050015       -4.4013610000       -2.5253513556  MEMB      164             0.0000000000
     18924       164  SLPC      C217           37.3278592618       -6.3218280575       -1.9857968354  MEMB      164             0.0000000000
     18925       164  SLPC      H17R           38.3935478212       -6.1790179030       -2.2655013941  MEMB      164             0.0000000000
     18926       164  SLPC      H17S           37.0860682643       -7.3898318100       -2.1734829546  MEMB      164             0.0000000000
     18927       164  SLPC      C218           36.9821828240       -6.0041876776       -0.5009199488  MEMB      164             0.0000000000
     18928       164  SLPC      H18R           37.2833700135       -6.8088289015        0.2034659690  MEMB      164             0.0000000000
     18929       164  SLPC      H18S           35.8873081568       -6.1833433931       -0.5598602333  MEMB      164             0.0000000000
     18930       164  SLPC      H18T           37.2946487369       -5.0005774030       -0.1411246976  MEMB      164             0.0000000000
     18931       164  SLPC      C33            37.6923456707       -5.0104440613      -11.6867947236  MEMB      164             0.0000000000
     18932       164  SLPC      H3X            38.7798248787       -4.7995733493      -11.7719020154  MEMB      164             0.0000000000
     18933       164  SLPC      H3Y            37.4249705406       -5.1268857524      -10.6147537477  MEMB      164             0.0000000000
     18934       164  SLPC      C34            36.7952688780       -3.9336498257      -12.2501244456  MEMB      164             0.0000000000
     18935       164  SLPC      H4X            37.1468143053       -3.6252771562      -13.2579157468  MEMB      164             0.0000000000
     18936       164  SLPC      H4Y            36.7049952475       -3.0312180725      -11.6084165143  MEMB      164             0.0000000000
     18937       164  SLPC      C35            35.3091439267       -4.5214407811      -12.3711999994  MEMB      164             0.0000000000
     18938       164  SLPC      H5X            35.3045902692       -5.4049561275      -13.0447733180  MEMB      164             0.0000000000
     18939       164  SLPC      H5Y            34.6368229711       -3.7689968856      -12.8361015570  MEMB      164             0.0000000000
     18940       164  SLPC      C36            34.6775395190       -4.8444398610      -11.0465075346  MEMB      164             0.0000000000
     18941       164  SLPC      H6X            34.0987701677       -3.9554780030      -10.7162140623  MEMB      164             0.0000000000
     18942       164  SLPC      H6Y            35.3577669518       -5.0531032737      -10.1932366848  MEMB      164             0.0000000000
     18943       164  SLPC      C37            33.7063087964       -6.0682926264      -11.0040860403  MEMB      164             0.0000000000
     18944       164  SLPC      H7X            34.3011424589       -6.9772253140      -11.2371852176  MEMB      164             0.0000000000
     18945       164  SLPC      H7Y            33.0210752480       -5.8408528496      -11.8485075022  MEMB      164             0.0000000000
     18946       164  SLPC      C38            32.9681256387       -6.1916122256       -9.6538753497  MEMB      164             0.0000000000
     18947       164  SLPC      H8X            32.6384295351       -5.1765806778       -9.3451161923  MEMB      164             0.0000000000
     18948       164  SLPC      H8Y            33.7404906308       -6.4083997582       -8.8852553220  MEMB      164             0.0000000000
     18949       164  SLPC      C39            31.9312330591       -7.2835828235       -9.6493158327  MEMB      164             0.0000000000
     18950       164  SLPC      H9X            32.4821467544       -8.2476909412       -9.6131129612  MEMB      164             0.0000000000
     18951       164  SLPC      H9Y            31.2941672034       -7.2861972363      -10.5595144228  MEMB      164             0.0000000000
     18952       164  SLPC      C310           30.8510553475       -7.2243690492       -8.5088570491  MEMB      164             0.0000000000
     18953       164  SLPC      H10X           30.0984541788       -8.0174133453       -8.7063241705  MEMB      164             0.0000000000
     18954       164  SLPC      H10Y           30.2718381055       -6.2832164998       -8.6231374920  MEMB      164             0.0000000000
     18955       164  SLPC      C311           31.4117009620       -7.4306262255       -7.1163977975  MEMB      164             0.0000000000
     18956       164  SLPC      H11X           30.6374158254       -7.3077860739       -6.3291783902  MEMB      164             0.0000000000
     18957       164  SLPC      H11Y           32.1943969785       -6.6582421782       -6.9578705653  MEMB      164             0.0000000000
     18958       164  SLPC      C312           32.0948029135       -8.8056068773       -6.8289436664  MEMB      164             0.0000000000
     18959       164  SLPC      H12X           32.9600492088       -8.8163804503       -7.5257603046  MEMB      164             0.0000000000
     18960       164  SLPC      H12Y           31.4211812726       -9.6553453057       -7.0708099003  MEMB      164             0.0000000000
     18961       164  SLPC      C313           32.6678358820       -8.9316370192       -5.3901467230  MEMB      164             0.0000000000
     18962       164  SLPC      H13X           31.9460075363       -8.6725890973       -4.5862938066  MEMB      164             0.0000000000
     18963       164  SLPC      H13Y           33.4977796371       -8.1963826756       -5.4602571644  MEMB      164             0.0000000000
     18964       164  SLPC      C314           33.3302264396      -10.3237965687       -5.2286545072  MEMB      164             0.0000000000
     18965       164  SLPC      H14X           33.9781666592      -10.5934245877       -6.0899297138  MEMB      164             0.0000000000
     18966       164  SLPC      H14Y           32.4880123430      -11.0477605318       -5.1991168985  MEMB      164             0.0000000000
     18967       164  SLPC      C315           34.1390308627      -10.3763441882       -3.9056896514  MEMB      164             0.0000000000
     18968       164  SLPC      H15X           35.0001175596       -9.6770904544       -3.9681004636  MEMB      164             0.0000000000
     18969       164  SLPC      H15Y           34.4473263909      -11.4418533667       -3.8427233730  MEMB      164             0.0000000000
     18970       164  SLPC      C316           33.4294136942       -9.9808467234       -2.5175653430  MEMB      164             0.0000000000
     18971       164  SLPC      H16X           32.4117437006      -10.4251662389       -2.4822247953  MEMB      164             0.0000000000
     18972       164  SLPC      H16Y           33.4615596560       -8.8718731405       -2.4586986846  MEMB      164             0.0000000000
     18973       164  SLPC      C317           34.1781667593      -10.5410509330       -1.2968225335  MEMB      164             0.0000000000
     18974       164  SLPC      H17X           34.3021116114      -11.6058132826       -1.5887802923  MEMB      164             0.0000000000
     18975       164  SLPC      H17Y           33.4052197038      -10.3321336917       -0.5266096870  MEMB      164             0.0000000000
     18976       164  SLPC      C318           35.5933641271      -10.0413729853       -1.1034707699  MEMB      164             0.0000000000
     18977       164  SLPC      H18X           35.9038883509      -10.3878468957       -0.0945843979  MEMB      164             0.0000000000
     18978       164  SLPC      H18Y           35.6300701203       -8.9385530621       -1.2329392096  MEMB      164             0.0000000000
     18979       164  SLPC      H18Z           36.2894130600      -10.4641710650       -1.8591678971  MEMB      164             0.0000000000
     18980       165  SAPC      N             -34.1465954561       -1.5364552361      -21.8427577355  MEMB      165             0.0000000000
     18981       165  SAPC      C12           -33.0419714220       -0.8957693921      -21.0590515707  MEMB      165             0.0000000000
     18982       165  SAPC      H12A          -33.5576682979       -0.2693384797      -20.3462815645  MEMB      165             0.0000000000
     18983       165  SAPC      H12B          -32.3110581255       -0.3519117224      -21.6390382943  MEMB      165             0.0000000000
     18984       165  SAPC      C13           -34.8898726729       -0.4239098108      -22.4948873772  MEMB      165             0.0000000000
     18985       165  SAPC      H13A          -35.7573439419       -0.8703467540      -22.9581235058  MEMB      165             0.0000000000
     18986       165  SAPC      H13B          -35.2468627750        0.1781931250      -21.6724336885  MEMB      165             0.0000000000
     18987       165  SAPC      H13C          -34.3087246330        0.2790435808      -23.0732674973  MEMB      165             0.0000000000
     18988       165  SAPC      C14           -33.6084285234       -2.5044788753      -22.9142402888  MEMB      165             0.0000000000
     18989       165  SAPC      H14A          -33.2188366510       -3.4253555479      -22.5060682579  MEMB      165             0.0000000000
     18990       165  SAPC      H14B          -34.2747693146       -2.6264489636      -23.7553782848  MEMB      165             0.0000000000
     18991       165  SAPC      H14C          -32.7357754174       -1.9308010181      -23.1895041600  MEMB      165             0.0000000000
     18992       165  SAPC      C15           -35.1985736148       -2.2644532089      -20.9941703910  MEMB      165             0.0000000000
     18993       165  SAPC      H15A          -34.7776666783       -3.1789712424      -20.6031537877  MEMB      165             0.0000000000
     18994       165  SAPC      H15B          -35.5360101014       -1.6361102068      -20.1831699207  MEMB      165             0.0000000000
     18995       165  SAPC      H15C          -36.0615599569       -2.4666825412      -21.6112260642  MEMB      165             0.0000000000
     18996       165  SAPC      C11           -32.0945263192       -1.8184267640      -20.3543598082  MEMB      165             0.0000000000
     18997       165  SAPC      H11A          -31.3606459158       -1.2483932479      -19.7454243571  MEMB      165             0.0000000000
     18998       165  SAPC      H11B          -31.5729304548       -2.3526387457      -21.1770847258  MEMB      165             0.0000000000
     18999       165  SAPC      P             -32.9041099758       -2.5951908415      -18.0278462511  MEMB      165             0.0000000000
     19000       165  SAPC      O13           -32.8991414596       -1.1449747404      -17.6440115345  MEMB      165             0.0000000000
     19001       165  SAPC      O14           -34.0395539302       -3.4097214845      -17.6212042114  MEMB      165             0.0000000000
     19002       165  SAPC      O12           -32.7231461501       -2.7892896769      -19.5679781705  MEMB      165             0.0000000000
     19003       165  SAPC      O11           -31.6193649149       -3.3406254212      -17.4794926172  MEMB      165             0.0000000000
     19004       165  SAPC      C1            -31.1084822867       -4.4603576476      -18.2153476226  MEMB      165             0.0000000000
     19005       165  SAPC      HA            -31.9166641386       -4.9806435569      -18.7725420855  MEMB      165             0.0000000000
     19006       165  SAPC      HB            -30.4937859032       -4.1845658303      -19.0987545596  MEMB      165             0.0000000000
     19007       165  SAPC      C2            -30.2721335717       -5.4160744051      -17.3227535452  MEMB      165             0.0000000000
     19008       165  SAPC      HS            -30.1390927411       -6.4035927637      -17.8141071299  MEMB      165             0.0000000000
     19009       165  SAPC      O21           -30.9218884107       -5.5205179161      -16.0641657578  MEMB      165             0.0000000000
     19010       165  SAPC      C21           -31.8701784002       -6.4302191345      -15.9229482370  MEMB      165             0.0000000000
     19011       165  SAPC      O22           -32.4420242159       -7.1687604042      -16.7415572683  MEMB      165             0.0000000000
     19012       165  SAPC      C22           -31.9357026765       -6.6374376079      -14.4343355031  MEMB      165             0.0000000000
     19013       165  SAPC      H2R           -32.5807513829       -7.5391430116      -14.3624993733  MEMB      165             0.0000000000
     19014       165  SAPC      H2S           -30.9267494861       -6.8447177574      -14.0179589794  MEMB      165             0.0000000000
     19015       165  SAPC      C3            -28.8323349030       -4.7888260626      -17.1070027139  MEMB      165             0.0000000000
     19016       165  SAPC      HX            -28.4028632963       -4.6227616899      -18.1180901161  MEMB      165             0.0000000000
     19017       165  SAPC      HY            -28.2145617837       -5.5215134704      -16.5450007381  MEMB      165             0.0000000000
     19018       165  SAPC      O31           -28.9226068289       -3.4939291462      -16.4962059532  MEMB      165             0.0000000000
     19019       165  SAPC      C31           -28.1556401672       -3.0737853123      -15.4082260076  MEMB      165             0.0000000000
     19020       165  SAPC      O32           -27.3555294979       -3.8818713240      -14.8406503579  MEMB      165             0.0000000000
     19021       165  SAPC      C32           -28.3335252688       -1.5774389484      -15.0843469352  MEMB      165             0.0000000000
     19022       165  SAPC      H2X           -27.5840298794       -0.9687223768      -15.6339301162  MEMB      165             0.0000000000
     19023       165  SAPC      H2Y           -28.1991651504       -1.4419422472      -13.9898565523  MEMB      165             0.0000000000
     19024       165  SAPC      C23           -32.5916355988       -5.4001667182      -13.9298448674  MEMB      165             0.0000000000
     19025       165  SAPC      H3R           -33.4249462616       -4.9726492639      -14.5274592599  MEMB      165             0.0000000000
     19026       165  SAPC      H3S           -31.8120465157       -4.6092908589      -13.9626641137  MEMB      165             0.0000000000
     19027       165  SAPC      C24           -33.1887609702       -5.5188976891      -12.5017710280  MEMB      165             0.0000000000
     19028       165  SAPC      H4R           -33.8433095746       -4.6389178697      -12.3242249030  MEMB      165             0.0000000000
     19029       165  SAPC      H4S           -32.3384826915       -5.3056464146      -11.8192232301  MEMB      165             0.0000000000
     19030       165  SAPC      C25           -34.0043604443       -6.8066297416      -12.1886755816  MEMB      165             0.0000000000
     19031       165  SAPC      H5R           -34.8439586122       -6.9091701892      -12.8919256978  MEMB      165             0.0000000000
     19032       165  SAPC      C26           -33.7408378869       -7.7480957872      -11.3090783888  MEMB      165             0.0000000000
     19033       165  SAPC      H6R           -34.3131924273       -8.6769862664      -11.4489801491  MEMB      165             0.0000000000
     19034       165  SAPC      C27           -32.5747249847       -7.8865023707      -10.3405771126  MEMB      165             0.0000000000
     19035       165  SAPC      H7R           -32.6440625398       -8.8954066712       -9.8805496512  MEMB      165             0.0000000000
     19036       165  SAPC      H7S           -32.7055348468       -7.1234405317       -9.5437420185  MEMB      165             0.0000000000
     19037       165  SAPC      C28           -31.0842161334       -7.6881111132      -10.7594246875  MEMB      165             0.0000000000
     19038       165  SAPC      H8R           -30.7096397221       -8.3781028347      -11.5298820094  MEMB      165             0.0000000000
     19039       165  SAPC      C29           -30.1325336232       -6.9051158925      -10.2129205743  MEMB      165             0.0000000000
     19040       165  SAPC      H9R           -29.1061799176       -7.0432477416      -10.5837543745  MEMB      165             0.0000000000
     19041       165  SAPC      C210          -30.2274236402       -6.0638494986       -8.9724299066  MEMB      165             0.0000000000
     19042       165  SAPC      H10R          -29.4265678965       -6.3375374257       -8.2526763479  MEMB      165             0.0000000000
     19043       165  SAPC      H10S          -31.1755643837       -6.2900815760       -8.4393544710  MEMB      165             0.0000000000
     19044       165  SAPC      C211          -30.0678292156       -4.6142599989       -9.3320338697  MEMB      165             0.0000000000
     19045       165  SAPC      H11R          -30.0398824038       -4.3143209202      -10.3899827365  MEMB      165             0.0000000000
     19046       165  SAPC      C212          -29.8922122314       -3.5462473254       -8.5717939301  MEMB      165             0.0000000000
     19047       165  SAPC      H12R          -29.7354399686       -2.5343733631       -8.9737064678  MEMB      165             0.0000000000
     19048       165  SAPC      C213          -29.8768508291       -3.5746087988       -7.0937383948  MEMB      165             0.0000000000
     19049       165  SAPC      H13R          -29.4953238304       -4.5419382498       -6.7025444044  MEMB      165             0.0000000000
     19050       165  SAPC      H13S          -30.9323456251       -3.4287850815       -6.7791163061  MEMB      165             0.0000000000
     19051       165  SAPC      C214          -28.9098032487       -2.5518504187       -6.6061970391  MEMB      165             0.0000000000
     19052       165  SAPC      H14R          -28.3838961789       -1.8784879931       -7.2990209428  MEMB      165             0.0000000000
     19053       165  SAPC      C215          -28.7135356084       -2.2976831266       -5.3381228335  MEMB      165             0.0000000000
     19054       165  SAPC      H15R          -28.0161083858       -1.5174177938       -4.9993299899  MEMB      165             0.0000000000
     19055       165  SAPC      C216          -29.4447316034       -3.0520256098       -4.2528037199  MEMB      165             0.0000000000
     19056       165  SAPC      H16R          -30.3744179250       -3.5044181997       -4.6594312474  MEMB      165             0.0000000000
     19057       165  SAPC      H16S          -29.6697290118       -2.4325314253       -3.3584198608  MEMB      165             0.0000000000
     19058       165  SAPC      C217          -28.5408179099       -4.2165299235       -3.7912768507  MEMB      165             0.0000000000
     19059       165  SAPC      H17R          -27.5414373460       -3.8236591776       -3.5062985031  MEMB      165             0.0000000000
     19060       165  SAPC      H17S          -28.3832004109       -4.8612370305       -4.6822480003  MEMB      165             0.0000000000
     19061       165  SAPC      C218          -29.1353162447       -5.0882352341       -2.6962216559  MEMB      165             0.0000000000
     19062       165  SAPC      H18R          -30.0897377577       -5.5718179625       -2.9954685012  MEMB      165             0.0000000000
     19063       165  SAPC      H18S          -29.3846978800       -4.6424588752       -1.7096049881  MEMB      165             0.0000000000
     19064       165  SAPC      C219          -28.0698935938       -6.1864680636       -2.3666789910  MEMB      165             0.0000000000
     19065       165  SAPC      H19R          -27.6244973931       -6.3372814530       -3.3732572222  MEMB      165             0.0000000000
     19066       165  SAPC      H19S          -28.5459341223       -7.1677764057       -2.1551606160  MEMB      165             0.0000000000
     19067       165  SAPC      C220          -26.8737643637       -5.8002091193       -1.4775437061  MEMB      165             0.0000000000
     19068       165  SAPC      H20R          -25.9537075286       -6.3850007233       -1.6916354089  MEMB      165             0.0000000000
     19069       165  SAPC      H20S          -27.0846178561       -6.1266735816       -0.4367349950  MEMB      165             0.0000000000
     19070       165  SAPC      H20T          -26.6163288181       -4.7207400824       -1.5304052758  MEMB      165             0.0000000000
     19071       165  SAPC      C33           -29.7608489744       -1.1199847589      -15.5453884360  MEMB      165             0.0000000000
     19072       165  SAPC      H3X           -29.8239385082       -1.1774957543      -16.6531035775  MEMB      165             0.0000000000
     19073       165  SAPC      H3Y           -29.7775559967       -0.0370100297      -15.2979857850  MEMB      165             0.0000000000
     19074       165  SAPC      C34           -30.9438949025       -1.8421511297      -14.7490741398  MEMB      165             0.0000000000
     19075       165  SAPC      H4X           -30.9079666605       -2.9095738466      -15.0550785304  MEMB      165             0.0000000000
     19076       165  SAPC      H4Y           -31.8211223478       -1.2993675179      -15.1616016285  MEMB      165             0.0000000000
     19077       165  SAPC      C35           -30.8169341129       -1.6188635606      -13.2496267802  MEMB      165             0.0000000000
     19078       165  SAPC      H5X           -30.6201713389       -0.5439640070      -13.0491360893  MEMB      165             0.0000000000
     19079       165  SAPC      H5Y           -30.0499460192       -2.3388094726      -12.8922361987  MEMB      165             0.0000000000
     19080       165  SAPC      C36           -32.1725107004       -1.9146008917      -12.5719493184  MEMB      165             0.0000000000
     19081       165  SAPC      H6X           -32.6192209884       -2.9047560084      -12.8051097797  MEMB      165             0.0000000000
     19082       165  SAPC      H6Y           -32.8305483707       -1.0772028341      -12.8882905128  MEMB      165             0.0000000000
     19083       165  SAPC      C37           -32.1461839845       -1.8392720402      -11.0565508711  MEMB      165             0.0000000000
     19084       165  SAPC      H7X           -31.6172166401       -0.8841759227      -10.8508668975  MEMB      165             0.0000000000
     19085       165  SAPC      H7Y           -31.6105410833       -2.7368062659      -10.6799348416  MEMB      165             0.0000000000
     19086       165  SAPC      C38           -33.5048539546       -1.7914872183      -10.4084820561  MEMB      165             0.0000000000
     19087       165  SAPC      H8X           -33.5235874147       -2.8255562537      -10.0026853494  MEMB      165             0.0000000000
     19088       165  SAPC      H8Y           -34.2433514294       -1.5613883599      -11.2059760897  MEMB      165             0.0000000000
     19089       165  SAPC      C39           -33.7709728736       -0.8258821049       -9.2464405615  MEMB      165             0.0000000000
     19090       165  SAPC      H9X           -34.8255537302       -0.8541343835       -8.8980407128  MEMB      165             0.0000000000
     19091       165  SAPC      H9Y           -33.4740982793        0.1766581551       -9.6220726426  MEMB      165             0.0000000000
     19092       165  SAPC      C310          -32.9003743364       -1.1464409113       -7.9278156928  MEMB      165             0.0000000000
     19093       165  SAPC      H10X          -31.8181515569       -1.1603664492       -8.1786563842  MEMB      165             0.0000000000
     19094       165  SAPC      H10Y          -33.1469183129       -2.1106564365       -7.4340294216  MEMB      165             0.0000000000
     19095       165  SAPC      C311          -33.0262303340       -0.0775146020       -6.8279876770  MEMB      165             0.0000000000
     19096       165  SAPC      H11X          -34.0573754195        0.3050727316       -6.6708634505  MEMB      165             0.0000000000
     19097       165  SAPC      H11Y          -32.5807554914        0.8853184100       -7.1578752778  MEMB      165             0.0000000000
     19098       165  SAPC      C312          -32.6589352510       -0.5368915022       -5.4413343875  MEMB      165             0.0000000000
     19099       165  SAPC      H12X          -32.8111445313        0.3502891249       -4.7901325799  MEMB      165             0.0000000000
     19100       165  SAPC      H12Y          -31.6512531644       -0.9986860834       -5.5164597039  MEMB      165             0.0000000000
     19101       165  SAPC      C313          -33.5491648676       -1.6492684418       -4.7546719344  MEMB      165             0.0000000000
     19102       165  SAPC      H13X          -33.3132194227       -2.5349761819       -5.3825038685  MEMB      165             0.0000000000
     19103       165  SAPC      H13Y          -34.6345503184       -1.4148554319       -4.7908606628  MEMB      165             0.0000000000
     19104       165  SAPC      C314          -33.1764915277       -2.0193304559       -3.2890466156  MEMB      165             0.0000000000
     19105       165  SAPC      H14X          -33.0701621747       -1.0469031086       -2.7623596475  MEMB      165             0.0000000000
     19106       165  SAPC      H14Y          -32.1000332745       -2.2900689707       -3.3365749690  MEMB      165             0.0000000000
     19107       165  SAPC      C315          -33.9898830240       -3.1560194055       -2.6960130830  MEMB      165             0.0000000000
     19108       165  SAPC      H15X          -34.0294530059       -4.0573563770       -3.3443554198  MEMB      165             0.0000000000
     19109       165  SAPC      H15Y          -34.9976027412       -2.6885972405       -2.6775906547  MEMB      165             0.0000000000
     19110       165  SAPC      C316          -33.5315933402       -3.4683886507       -1.2753712740  MEMB      165             0.0000000000
     19111       165  SAPC      H16X          -33.7434890905       -2.6133462139       -0.5983750727  MEMB      165             0.0000000000
     19112       165  SAPC      H16Y          -32.4463199989       -3.7046036776       -1.2488153070  MEMB      165             0.0000000000
     19113       165  SAPC      C317          -34.2829501785       -4.6725145141       -0.6977232778  MEMB      165             0.0000000000
     19114       165  SAPC      H17X          -35.3751326891       -4.4870892285       -0.7818395121  MEMB      165             0.0000000000
     19115       165  SAPC      H17Y          -33.9625680887       -4.6353304482        0.3654293684  MEMB      165             0.0000000000
     19116       165  SAPC      C318          -33.8684698722       -6.0441483569       -1.2470297008  MEMB      165             0.0000000000
     19117       165  SAPC      H18X          -33.8962180803       -5.9789477608       -2.3557674402  MEMB      165             0.0000000000
     19118       165  SAPC      H18Y          -34.5500284954       -6.8737288917       -0.9613811882  MEMB      165             0.0000000000
     19119       165  SAPC      H18Z          -32.8420385361       -6.2984358905       -0.9063001242  MEMB      165             0.0000000000
     19120       166  SAPS      N               9.9017627838       34.6429586204      -21.8463530560  MEMB      166             0.0000000000
     19121       166  SAPS      HN1            10.0397555803       33.6340210736      -21.6351588331  MEMB      166             0.0000000000
     19122       166  SAPS      HN2             9.4004928199       34.8505528212      -22.7336144726  MEMB      166             0.0000000000
     19123       166  SAPS      HN3            10.8314464368       35.0808502252      -22.0061633317  MEMB      166             0.0000000000
     19124       166  SAPS      C12             9.1706075995       35.3571965203      -20.7973327259  MEMB      166             0.0000000000
     19125       166  SAPS      H12A            9.8425982164       36.1395464527      -20.4767749031  MEMB      166             0.0000000000
     19126       166  SAPS      C13             7.9399341148       36.0871255948      -21.3316609013  MEMB      166             0.0000000000
     19127       166  SAPS      O13A            7.7713693032       35.9391412663      -22.5975550368  MEMB      166             0.0000000000
     19128       166  SAPS      O13B            7.3756410625       36.9200871983      -20.6365272654  MEMB      166             0.0000000000
     19129       166  SAPS      C11             8.5436381041       34.3633836269      -19.6680670874  MEMB      166             0.0000000000
     19130       166  SAPS      H11A            7.6791277259       33.7839660441      -20.0569347534  MEMB      166             0.0000000000
     19131       166  SAPS      H11B            8.1460768042       34.8653047175      -18.7601346376  MEMB      166             0.0000000000
     19132       166  SAPS      P               9.4054411303       32.0919287338      -18.5986001606  MEMB      166             0.0000000000
     19133       166  SAPS      O13             8.5608027917       32.1719295618      -17.4225732158  MEMB      166             0.0000000000
     19134       166  SAPS      O14             8.8400401561       31.2056370146      -19.6215527818  MEMB      166             0.0000000000
     19135       166  SAPS      O12             9.6059555374       33.5453783010      -19.2041697061  MEMB      166             0.0000000000
     19136       166  SAPS      O11            10.8373818450       31.5153232520      -18.2756080704  MEMB      166             0.0000000000
     19137       166  SAPS      C1             11.6876734960       32.4120119521      -17.5934389135  MEMB      166             0.0000000000
     19138       166  SAPS      HA             12.4691129992       32.8129721225      -18.2738094041  MEMB      166             0.0000000000
     19139       166  SAPS      HB             11.2024972043       33.2859038165      -17.1084256198  MEMB      166             0.0000000000
     19140       166  SAPS      C2             12.4155555393       31.7683576101      -16.3753074662  MEMB      166             0.0000000000
     19141       166  SAPS      HS             13.0188067515       30.9190423807      -16.7614071503  MEMB      166             0.0000000000
     19142       166  SAPS      O21            11.4586955868       31.1299106737      -15.4969116231  MEMB      166             0.0000000000
     19143       166  SAPS      C21            11.8192898215       30.4927345876      -14.4518076575  MEMB      166             0.0000000000
     19144       166  SAPS      O22            12.9924027199       30.2500482692      -14.0831943758  MEMB      166             0.0000000000
     19145       166  SAPS      C22            10.5837017058       30.3782658126      -13.5771939218  MEMB      166             0.0000000000
     19146       166  SAPS      H2R             9.7838254850       31.0164837565      -14.0098564775  MEMB      166             0.0000000000
     19147       166  SAPS      H2S            10.1447644013       29.3587885299      -13.5290164276  MEMB      166             0.0000000000
     19148       166  SAPS      C3             13.2960014186       32.9116876388      -15.6456405659  MEMB      166             0.0000000000
     19149       166  SAPS      HX             13.8802642432       33.4061046321      -16.4509414061  MEMB      166             0.0000000000
     19150       166  SAPS      HY             13.9998755607       32.5861116149      -14.8501015841  MEMB      166             0.0000000000
     19151       166  SAPS      O31            12.3746592630       33.8401466428      -15.0849420567  MEMB      166             0.0000000000
     19152       166  SAPS      C31            12.8639455865       34.7189376063      -14.2520161124  MEMB      166             0.0000000000
     19153       166  SAPS      O32            14.0517576947       34.8947719696      -14.0909991295  MEMB      166             0.0000000000
     19154       166  SAPS      C32            11.6587405565       35.4887768812      -13.5906323400  MEMB      166             0.0000000000
     19155       166  SAPS      H2X            10.7439381271       34.8589440348      -13.6183457889  MEMB      166             0.0000000000
     19156       166  SAPS      H2Y            11.4060508494       36.2361355581      -14.3728880218  MEMB      166             0.0000000000
     19157       166  SAPS      C23            10.9934649231       30.7602672476      -12.1435231840  MEMB      166             0.0000000000
     19158       166  SAPS      H3R            11.8073053225       30.0827075821      -11.8075197706  MEMB      166             0.0000000000
     19159       166  SAPS      H3S            10.0929454850       30.4730726820      -11.5596525010  MEMB      166             0.0000000000
     19160       166  SAPS      C24            11.4372240412       32.2066321793      -12.0014667689  MEMB      166             0.0000000000
     19161       166  SAPS      H4R            10.6837108086       32.9215447512      -12.3957244641  MEMB      166             0.0000000000
     19162       166  SAPS      H4S            12.3790256511       32.2726072318      -12.5871104011  MEMB      166             0.0000000000
     19163       166  SAPS      C25            11.6276879716       32.6096520828      -10.5812661151  MEMB      166             0.0000000000
     19164       166  SAPS      H5R            10.6971521517       32.6940503413      -10.0007663477  MEMB      166             0.0000000000
     19165       166  SAPS      C26            12.6894149479       32.9711467028       -9.9288637309  MEMB      166             0.0000000000
     19166       166  SAPS      H6R            12.6532618726       33.3524686176       -8.8977055734  MEMB      166             0.0000000000
     19167       166  SAPS      C27            14.1033341245       33.1068316852      -10.4536779364  MEMB      166             0.0000000000
     19168       166  SAPS      H7R            14.4440379030       34.0160795432       -9.9137602791  MEMB      166             0.0000000000
     19169       166  SAPS      H7S            14.1464535599       33.4186111798      -11.5191616026  MEMB      166             0.0000000000
     19170       166  SAPS      C28            14.9113498571       31.8638440304      -10.1956561617  MEMB      166             0.0000000000
     19171       166  SAPS      H8R            14.8127293028       31.0706640649      -10.9513932956  MEMB      166             0.0000000000
     19172       166  SAPS      C29            15.7873387423       31.6045131399       -9.1378541026  MEMB      166             0.0000000000
     19173       166  SAPS      H9R            16.2798379605       30.6247122720       -9.2240810295  MEMB      166             0.0000000000
     19174       166  SAPS      C210           16.2207791008       32.4745044044       -7.9385564861  MEMB      166             0.0000000000
     19175       166  SAPS      H10R           15.5206587101       33.3245149364       -7.7914692746  MEMB      166             0.0000000000
     19176       166  SAPS      H10S           17.2139512193       32.9322374652       -8.1345419036  MEMB      166             0.0000000000
     19177       166  SAPS      C211           16.2896167536       31.6880173709       -6.6574084313  MEMB      166             0.0000000000
     19178       166  SAPS      H11R           16.8650878852       30.7521821480       -6.6022269189  MEMB      166             0.0000000000
     19179       166  SAPS      C212           15.6188368329       32.0434385561       -5.5573523339  MEMB      166             0.0000000000
     19180       166  SAPS      H12R           15.7923803244       31.4678324785       -4.6361797247  MEMB      166             0.0000000000
     19181       166  SAPS      C213           14.6352773161       33.2357048231       -5.3673613687  MEMB      166             0.0000000000
     19182       166  SAPS      H13R           15.0764719369       34.2247147048       -5.6154091638  MEMB      166             0.0000000000
     19183       166  SAPS      H13S           14.4471093107       33.1964222788       -4.2731174500  MEMB      166             0.0000000000
     19184       166  SAPS      C214           13.3024555894       33.1747135265       -6.0317987948  MEMB      166             0.0000000000
     19185       166  SAPS      H14R           13.1358515601       32.2298363840       -6.5698044895  MEMB      166             0.0000000000
     19186       166  SAPS      C215           12.3991276721       34.1167137564       -5.8838682621  MEMB      166             0.0000000000
     19187       166  SAPS      H15R           11.4978341421       33.9555982830       -6.4935495319  MEMB      166             0.0000000000
     19188       166  SAPS      C216           12.4712018966       35.3821419419       -5.0261564681  MEMB      166             0.0000000000
     19189       166  SAPS      H16R           12.6669206105       36.1999786302       -5.7522127266  MEMB      166             0.0000000000
     19190       166  SAPS      H16S           13.2987499654       35.3551480023       -4.2853746770  MEMB      166             0.0000000000
     19191       166  SAPS      C217           11.3506363862       35.7741210919       -4.0361156400  MEMB      166             0.0000000000
     19192       166  SAPS      H17R           11.3795769040       35.1028093975       -3.1513411813  MEMB      166             0.0000000000
     19193       166  SAPS      H17S           10.3827278347       35.6303229576       -4.5622295042  MEMB      166             0.0000000000
     19194       166  SAPS      C218           11.4447493871       37.3195127168       -3.6343054961  MEMB      166             0.0000000000
     19195       166  SAPS      H18R           11.2700893223       38.0237218880       -4.4756756464  MEMB      166             0.0000000000
     19196       166  SAPS      H18S           12.4441460557       37.5014789251       -3.1843986389  MEMB      166             0.0000000000
     19197       166  SAPS      C219           10.2930770731       37.5011442759       -2.5725146488  MEMB      166             0.0000000000
     19198       166  SAPS      H19R            9.3475506618       37.4132298560       -3.1492060543  MEMB      166             0.0000000000
     19199       166  SAPS      H19S           10.1999245656       38.5663105110       -2.2707458005  MEMB      166             0.0000000000
     19200       166  SAPS      C220           10.4753325029       36.6551259240       -1.3237667532  MEMB      166             0.0000000000
     19201       166  SAPS      H20R            9.7369882653       37.0254350487       -0.5807719259  MEMB      166             0.0000000000
     19202       166  SAPS      H20S           11.4695817913       36.8189037860       -0.8558261119  MEMB      166             0.0000000000
     19203       166  SAPS      H20T           10.3060314396       35.5626027100       -1.4335464449  MEMB      166             0.0000000000
     19204       166  SAPS      C33            12.1514569967       36.0918938002      -12.2678657421  MEMB      166             0.0000000000
     19205       166  SAPS      H3X            13.1256739833       36.6166049681      -12.3673667727  MEMB      166             0.0000000000
     19206       166  SAPS      H3Y            12.2407982216       35.2955280143      -11.4983584549  MEMB      166             0.0000000000
     19207       166  SAPS      C34            11.2444862143       37.2032566054      -11.6844496785  MEMB      166             0.0000000000
     19208       166  SAPS      H4X            11.1780617231       38.1365383311      -12.2835276473  MEMB      166             0.0000000000
     19209       166  SAPS      H4Y            11.7178227271       37.5155120048      -10.7290594917  MEMB      166             0.0000000000
     19210       166  SAPS      C35             9.7916106705       36.8368571699      -11.4225625368  MEMB      166             0.0000000000
     19211       166  SAPS      H5X             9.4660556666       36.3016297840      -12.3400950586  MEMB      166             0.0000000000
     19212       166  SAPS      H5Y             9.2362938064       37.7991014322      -11.4280594721  MEMB      166             0.0000000000
     19213       166  SAPS      C36             9.5926668841       35.9202123832      -10.2590288673  MEMB      166             0.0000000000
     19214       166  SAPS      H6X            10.2789358700       36.1518481059       -9.4165917321  MEMB      166             0.0000000000
     19215       166  SAPS      H6Y             9.8255149157       34.8493533150      -10.4416859599  MEMB      166             0.0000000000
     19216       166  SAPS      C37             8.1202499347       35.8471647439       -9.7810490464  MEMB      166             0.0000000000
     19217       166  SAPS      H7X             7.6405038183       35.1666750669      -10.5166434995  MEMB      166             0.0000000000
     19218       166  SAPS      H7Y             7.6255670779       36.8287169534       -9.9428071691  MEMB      166             0.0000000000
     19219       166  SAPS      C38             7.8461727472       35.7035107703       -8.2647721114  MEMB      166             0.0000000000
     19220       166  SAPS      H8X             6.7438545278       35.5890206223       -8.1866213471  MEMB      166             0.0000000000
     19221       166  SAPS      H8Y             8.2148558196       36.6500134117       -7.8147434274  MEMB      166             0.0000000000
     19222       166  SAPS      C39             8.6487711607       34.4663502772       -7.6853660731  MEMB      166             0.0000000000
     19223       166  SAPS      H9X             8.6973415421       34.6060986405       -6.5842604769  MEMB      166             0.0000000000
     19224       166  SAPS      H9Y             9.6998295368       34.4643707852       -8.0453568021  MEMB      166             0.0000000000
     19225       166  SAPS      C310            7.9551990537       33.1448242401       -7.8773181644  MEMB      166             0.0000000000
     19226       166  SAPS      H10X            7.9190269131       33.0260394027       -8.9813575244  MEMB      166             0.0000000000
     19227       166  SAPS      H10Y            6.9472501671       33.0421743986       -7.4214421220  MEMB      166             0.0000000000
     19228       166  SAPS      C311            8.8797438609       32.0321115682       -7.4090159931  MEMB      166             0.0000000000
     19229       166  SAPS      H11X            8.8195336572       31.8223278393       -6.3196645071  MEMB      166             0.0000000000
     19230       166  SAPS      H11Y            9.9405116894       32.2522037267       -7.6552927775  MEMB      166             0.0000000000
     19231       166  SAPS      C312            8.7269626080       30.6740242837       -8.1215490621  MEMB      166             0.0000000000
     19232       166  SAPS      H12X            8.7534354738       30.8895655670       -9.2111189115  MEMB      166             0.0000000000
     19233       166  SAPS      H12Y            7.7024686230       30.3258196112       -7.8695840836  MEMB      166             0.0000000000
     19234       166  SAPS      C313            9.7885380047       29.5712780894       -7.6947553224  MEMB      166             0.0000000000
     19235       166  SAPS      H13X           10.7954292205       29.6455620437       -8.1584074915  MEMB      166             0.0000000000
     19236       166  SAPS      H13Y            9.2721875932       28.7110773300       -8.1719949072  MEMB      166             0.0000000000
     19237       166  SAPS      C314            9.7514670492       29.3584322866       -6.2168324806  MEMB      166             0.0000000000
     19238       166  SAPS      H14X            9.8936851404       28.2724548566       -6.0304241082  MEMB      166             0.0000000000
     19239       166  SAPS      H14Y            8.8618665232       29.7807499149       -5.7024596729  MEMB      166             0.0000000000
     19240       166  SAPS      C315           10.9781346566       30.0512486716       -5.6625583634  MEMB      166             0.0000000000
     19241       166  SAPS      H15X           10.7563488577       30.6172535087       -4.7326283903  MEMB      166             0.0000000000
     19242       166  SAPS      H15Y           11.3857309744       30.8092694325       -6.3651186835  MEMB      166             0.0000000000
     19243       166  SAPS      C316           12.0756293087       29.0177786028       -5.2943327164  MEMB      166             0.0000000000
     19244       166  SAPS      H16X           13.0668800240       29.5048862475       -5.1740454069  MEMB      166             0.0000000000
     19245       166  SAPS      H16Y           12.1841783535       28.1949280503       -6.0328818111  MEMB      166             0.0000000000
     19246       166  SAPS      C317           11.8638906426       28.1576345538       -4.0027137333  MEMB      166             0.0000000000
     19247       166  SAPS      H17X           12.7225974579       27.4560451366       -3.9340408217  MEMB      166             0.0000000000
     19248       166  SAPS      H17Y           10.8576047422       27.7153526944       -4.1642565759  MEMB      166             0.0000000000
     19249       166  SAPS      C318           11.8023309780       29.0168061691       -2.7958994152  MEMB      166             0.0000000000
     19250       166  SAPS      H18X           12.6300562319       29.7562696709       -2.7470461829  MEMB      166             0.0000000000
     19251       166  SAPS      H18Y           11.8426733399       28.5039864982       -1.8111601697  MEMB      166             0.0000000000
     19252       166  SAPS      H18Z           10.8789541352       29.6346079538       -2.7918233874  MEMB      166             0.0000000000
     19253       167  CHL1      C3            -32.5072923591       13.9961920535      -17.3965800000  MEMB      167             0.0000000000
     19254       167  CHL1      H3            -33.3406715711       13.3345146303      -17.7159300000  MEMB      167             0.0000000000
     19255       167  CHL1      O3            -31.9145638409       14.4484587465      -18.6034200000  MEMB      167             0.0000000000
     19256       167  CHL1      H3'           -31.2120036048       15.0630927459      -18.3792700000  MEMB      167             0.0000000000
     19257       167  CHL1      C4            -32.9888932319       15.2964367968      -16.6249800000  MEMB      167             0.0000000000
     19258       167  CHL1      H4A           -32.1511828670       16.0191893370      -16.7258700000  MEMB      167             0.0000000000
     19259       167  CHL1      H4B           -33.7386977394       15.8353480420      -17.2427900000  MEMB      167             0.0000000000
     19260       167  CHL1      C5            -33.3570312836       14.9945178823      -15.2213400000  MEMB      167             0.0000000000
     19261       167  CHL1      C6            -34.5384231601       15.3340139429      -14.7297700000  MEMB      167             0.0000000000
     19262       167  CHL1      H6            -35.2392640588       15.8537652399      -15.3996100000  MEMB      167             0.0000000000
     19263       167  CHL1      C7            -34.8806483109       15.1947131740      -13.3146100000  MEMB      167             0.0000000000
     19264       167  CHL1      H7A           -35.5545472969       15.9806385147      -12.9114800000  MEMB      167             0.0000000000
     19265       167  CHL1      H7B           -35.5518702744       14.3242943604      -13.1528700000  MEMB      167             0.0000000000
     19266       167  CHL1      C8            -33.6049555987       14.9278078490      -12.4297600000  MEMB      167             0.0000000000
     19267       167  CHL1      H8            -33.0035066243       15.8619244215      -12.4288000000  MEMB      167             0.0000000000
     19268       167  CHL1      C14           -34.0381228390       14.5887871039      -11.0563900000  MEMB      167             0.0000000000
     19269       167  CHL1      H14           -34.5879138440       13.6273139179      -11.1436700000  MEMB      167             0.0000000000
     19270       167  CHL1      C15           -34.8537738931       15.6051745603      -10.3485600000  MEMB      167             0.0000000000
     19271       167  CHL1      H15A          -34.6648220344       16.6881194531      -10.5092900000  MEMB      167             0.0000000000
     19272       167  CHL1      H15B          -35.8976067021       15.3327669227      -10.6141300000  MEMB      167             0.0000000000
     19273       167  CHL1      C16           -34.6736267608       15.3287832965       -8.8588500000  MEMB      167             0.0000000000
     19274       167  CHL1      H16A          -34.1605387514       16.2338969029       -8.4692100000  MEMB      167             0.0000000000
     19275       167  CHL1      H16B          -35.6374265297       15.1725491813       -8.3287500000  MEMB      167             0.0000000000
     19276       167  CHL1      C17           -33.6609344358       14.1688065111       -8.7975100000  MEMB      167             0.0000000000
     19277       167  CHL1      H17           -34.1414401456       13.1684128593       -8.8489300000  MEMB      167             0.0000000000
     19278       167  CHL1      C13           -32.8726210778       14.1930841484      -10.1024200000  MEMB      167             0.0000000000
     19279       167  CHL1      C18           -31.7253934951       15.2752656296      -10.0250400000  MEMB      167             0.0000000000
     19280       167  CHL1      H18A          -32.0967011966       16.1311987264       -9.4218600000  MEMB      167             0.0000000000
     19281       167  CHL1      H18B          -30.9119037372       14.7235528772       -9.5072000000  MEMB      167             0.0000000000
     19282       167  CHL1      H18C          -31.4657592580       15.6294013644      -11.0455800000  MEMB      167             0.0000000000
     19283       167  CHL1      C12           -32.3013711193       12.8614289685      -10.7000600000  MEMB      167             0.0000000000
     19284       167  CHL1      H12A          -31.5122599001       12.5394335064       -9.9873600000  MEMB      167             0.0000000000
     19285       167  CHL1      H12B          -33.2127701069       12.2374000622      -10.5806500000  MEMB      167             0.0000000000
     19286       167  CHL1      C11           -31.7190178708       13.0722892647      -12.1087000000  MEMB      167             0.0000000000
     19287       167  CHL1      H11A          -30.8642178612       13.7814672315      -12.1353300000  MEMB      167             0.0000000000
     19288       167  CHL1      H11B          -31.2467086279       12.1379947116      -12.4806300000  MEMB      167             0.0000000000
     19289       167  CHL1      C9            -32.7288050463       13.8516375881      -13.0873000000  MEMB      167             0.0000000000
     19290       167  CHL1      H9            -33.5059913066       13.0834649866      -13.2878100000  MEMB      167             0.0000000000
     19291       167  CHL1      C10           -32.2274991998       14.3095913199      -14.4155900000  MEMB      167             0.0000000000
     19292       167  CHL1      C19           -31.0257530095       15.2288582409      -14.2476800000  MEMB      167             0.0000000000
     19293       167  CHL1      H19A          -30.1126274181       14.7037645414      -13.8944100000  MEMB      167             0.0000000000
     19294       167  CHL1      H19B          -30.6873936138       15.7061182998      -15.1921700000  MEMB      167             0.0000000000
     19295       167  CHL1      H19C          -31.3016788769       16.0751433478      -13.5828800000  MEMB      167             0.0000000000
     19296       167  CHL1      C1            -31.7501250391       13.0352146227      -15.1128300000  MEMB      167             0.0000000000
     19297       167  CHL1      H1A           -30.7409161708       12.7667593778      -14.7336800000  MEMB      167             0.0000000000
     19298       167  CHL1      H1B           -32.4810648947       12.2278829731      -14.8931400000  MEMB      167             0.0000000000
     19299       167  CHL1      C2            -31.4720735942       13.1778533947      -16.6313800000  MEMB      167             0.0000000000
     19300       167  CHL1      H2A           -31.1864014735       12.1927966352      -17.0584400000  MEMB      167             0.0000000000
     19301       167  CHL1      H2B           -30.5380306010       13.7594924543      -16.7849500000  MEMB      167             0.0000000000
     19302       167  CHL1      C20           -32.9632373681       14.2703643738       -7.3234700000  MEMB      167             0.0000000000
     19303       167  CHL1      H20           -32.3616499680       15.2042278885       -7.3412300000  MEMB      167             0.0000000000
     19304       167  CHL1      C21           -31.7979841562       13.2570225933       -7.1446500000  MEMB      167             0.0000000000
     19305       167  CHL1      H21A          -31.3240978840       13.3059681092       -6.1409800000  MEMB      167             0.0000000000
     19306       167  CHL1      H21B          -31.1000762780       13.2992753865       -8.0080500000  MEMB      167             0.0000000000
     19307       167  CHL1      H21C          -32.1881461619       12.2183716657       -7.2020200000  MEMB      167             0.0000000000
     19308       167  CHL1      C22           -33.9618038976       14.3045948885       -6.2284800000  MEMB      167             0.0000000000
     19309       167  CHL1      H22A          -34.5894919177       15.2161641317       -6.3253100000  MEMB      167             0.0000000000
     19310       167  CHL1      H22B          -34.5952465051       13.3927880614       -6.2697200000  MEMB      167             0.0000000000
     19311       167  CHL1      C23           -33.3410053968       14.5225342433       -4.8607400000  MEMB      167             0.0000000000
     19312       167  CHL1      H23A          -32.6913197491       13.6649298663       -4.5836900000  MEMB      167             0.0000000000
     19313       167  CHL1      H23B          -32.6823848286       15.4143254068       -4.7884000000  MEMB      167             0.0000000000
     19314       167  CHL1      C24           -34.3638699035       14.7104644825       -3.6963100000  MEMB      167             0.0000000000
     19315       167  CHL1      H24A          -35.1414391839       15.4864970856       -3.8620900000  MEMB      167             0.0000000000
     19316       167  CHL1      H24B          -34.9736761303       13.7864765837       -3.7896500000  MEMB      167             0.0000000000
     19317       167  CHL1      C25           -33.8334194736       14.8097618461       -2.3169100000  MEMB      167             0.0000000000
     19318       167  CHL1      H25           -33.0211635800       14.0610238608       -2.1987700000  MEMB      167             0.0000000000
     19319       167  CHL1      C26           -33.0872081827       16.0766861165       -2.0352100000  MEMB      167             0.0000000000
     19320       167  CHL1      H26A          -32.1940325532       16.2302386412       -2.6778500000  MEMB      167             0.0000000000
     19321       167  CHL1      H26B          -33.7750749315       16.9476263859       -1.9839000000  MEMB      167             0.0000000000
     19322       167  CHL1      H26C          -32.7444218405       16.0498529260       -0.9787500000  MEMB      167             0.0000000000
     19323       167  CHL1      C27           -34.8975720535       14.7051704083       -1.2022500000  MEMB      167             0.0000000000
     19324       167  CHL1      H27A          -34.4124223061       14.8287674254       -0.2104500000  MEMB      167             0.0000000000
     19325       167  CHL1      H27B          -35.6486111466       15.5226340791       -1.2471200000  MEMB      167             0.0000000000
     19326       167  CHL1      H27C          -35.4632720392       13.7589450659       -1.3399900000  MEMB      167             0.0000000000
     19327       168  SOPE      N              32.3204767442       12.2852723130      -23.8452525320  MEMB      168             0.0000000000
     19328       168  SOPE      HN1            32.1123779490       13.3021604236      -23.9103196998  MEMB      168             0.0000000000
     19329       168  SOPE      HN2            33.3517764484       12.1534541468      -23.8198574130  MEMB      168             0.0000000000
     19330       168  SOPE      HN3            31.8384391525       11.7611769950      -24.6032523574  MEMB      168             0.0000000000
     19331       168  SOPE      C12            31.8043269459       11.8385695358      -22.4843021613  MEMB      168             0.0000000000
     19332       168  SOPE      H12A           32.1160065320       10.7846535673      -22.3217048048  MEMB      168             0.0000000000
     19333       168  SOPE      H12B           30.6961255741       11.8585021389      -22.5605480946  MEMB      168             0.0000000000
     19334       168  SOPE      C11            32.0462327208       12.7841408846      -21.3139826661  MEMB      168             0.0000000000
     19335       168  SOPE      H11A           31.5673977630       12.3860640130      -20.3938887080  MEMB      168             0.0000000000
     19336       168  SOPE      H11B           31.5778785180       13.7361135039      -21.6436999800  MEMB      168             0.0000000000
     19337       168  SOPE      P              34.2992631172       12.1280387792      -20.1104961887  MEMB      168             0.0000000000
     19338       168  SOPE      O13            35.6965977494       12.5240938536      -20.0129729894  MEMB      168             0.0000000000
     19339       168  SOPE      O14            34.1079558560       10.7043481768      -20.4568051306  MEMB      168             0.0000000000
     19340       168  SOPE      O12            33.4731448306       13.0929589566      -21.0525808393  MEMB      168             0.0000000000
     19341       168  SOPE      O11            33.6894316212       12.3632607041      -18.7236074590  MEMB      168             0.0000000000
     19342       168  SOPE      C1             33.2734960852       13.6272720346      -18.2145637193  MEMB      168             0.0000000000
     19343       168  SOPE      HA             32.2235540308       13.5355697054      -17.8630905492  MEMB      168             0.0000000000
     19344       168  SOPE      HB             33.2092760498       14.3205553023      -19.0803321694  MEMB      168             0.0000000000
     19345       168  SOPE      C2             34.1586688172       14.0393834501      -17.0429958520  MEMB      168             0.0000000000
     19346       168  SOPE      HS             35.1585740904       14.4278317969      -17.3321641329  MEMB      168             0.0000000000
     19347       168  SOPE      O21            34.3243266340       12.9027367363      -16.1436297990  MEMB      168             0.0000000000
     19348       168  SOPE      C21            35.2615146153       13.0003839004      -15.2484035319  MEMB      168             0.0000000000
     19349       168  SOPE      O22            36.0567126773       13.8681773850      -15.2022232085  MEMB      168             0.0000000000
     19350       168  SOPE      C22            35.1429925919       11.8258376505      -14.2852077632  MEMB      168             0.0000000000
     19351       168  SOPE      H2R            36.1316738517       11.6133578666      -13.8251180019  MEMB      168             0.0000000000
     19352       168  SOPE      H2S            34.7999808523       10.9542596046      -14.8827155848  MEMB      168             0.0000000000
     19353       168  SOPE      C3             33.3715291607       15.1294543395      -16.2552616180  MEMB      168             0.0000000000
     19354       168  SOPE      HX             32.3338445809       14.7366418050      -16.1984287316  MEMB      168             0.0000000000
     19355       168  SOPE      HY             33.1387547815       16.0321992525      -16.8595703394  MEMB      168             0.0000000000
     19356       168  SOPE      O31            33.8940544206       15.5329072668      -14.9222686151  MEMB      168             0.0000000000
     19357       168  SOPE      C31            33.0132205023       15.8668168176      -13.9501025456  MEMB      168             0.0000000000
     19358       168  SOPE      O32            31.8380262637       15.9249534362      -14.0271572760  MEMB      168             0.0000000000
     19359       168  SOPE      C32            33.7371277410       16.2839108186      -12.6669071344  MEMB      168             0.0000000000
     19360       168  SOPE      H2X            34.5054295687       17.0676400013      -12.8395414329  MEMB      168             0.0000000000
     19361       168  SOPE      H2Y            34.2111866227       15.3549809244      -12.2839211243  MEMB      168             0.0000000000
     19362       168  SOPE      C23            34.0475978065       12.2250133187      -13.2499331774  MEMB      168             0.0000000000
     19363       168  SOPE      H3R            33.1972430568       11.8762002808      -13.8740703691  MEMB      168             0.0000000000
     19364       168  SOPE      H3S            33.9992178294       13.3264914799      -13.1130891619  MEMB      168             0.0000000000
     19365       168  SOPE      C24            34.0349650418       11.5600034346      -11.9038912604  MEMB      168             0.0000000000
     19366       168  SOPE      H4R            34.2552471603       10.4794995004      -12.0391972413  MEMB      168             0.0000000000
     19367       168  SOPE      H4S            34.6966140340       12.0512591891      -11.1587672914  MEMB      168             0.0000000000
     19368       168  SOPE      C25            32.5772662875       11.6248149049      -11.3298613197  MEMB      168             0.0000000000
     19369       168  SOPE      H5R            32.1986198557       12.6199848539      -11.0127102857  MEMB      168             0.0000000000
     19370       168  SOPE      H5S            31.8005658444       11.3226862245      -12.0645555397  MEMB      168             0.0000000000
     19371       168  SOPE      C26            32.3615260914       10.6077501060      -10.2012207850  MEMB      168             0.0000000000
     19372       168  SOPE      H6R            31.3635731850       10.7207379693       -9.7262005839  MEMB      168             0.0000000000
     19373       168  SOPE      H6S            32.5148853604        9.5604599378      -10.5388387860  MEMB      168             0.0000000000
     19374       168  SOPE      C27            33.2703830726       10.8956170775       -8.9664299033  MEMB      168             0.0000000000
     19375       168  SOPE      H7R            34.3253695347       11.0862425096       -9.2579549562  MEMB      168             0.0000000000
     19376       168  SOPE      H7S            32.8641040291       11.8374950849       -8.5396700101  MEMB      168             0.0000000000
     19377       168  SOPE      C28            33.1972655127        9.7944736965       -7.9545058139  MEMB      168             0.0000000000
     19378       168  SOPE      H8R            33.5302859087        8.8417719682       -8.4190251404  MEMB      168             0.0000000000
     19379       168  SOPE      H8S            33.9676527565       10.0331029423       -7.1903856471  MEMB      168             0.0000000000
     19380       168  SOPE      C29            31.8858413630        9.4269467610       -7.2854172007  MEMB      168             0.0000000000
     19381       168  SOPE      H91            31.5051470507        8.4703865481       -7.6727981975  MEMB      168             0.0000000000
     19382       168  SOPE      C210           31.3511197446        9.9929245146       -6.1577148098  MEMB      168             0.0000000000
     19383       168  SOPE      H101           30.3759494256        9.6981953113       -5.7427724339  MEMB      168             0.0000000000
     19384       168  SOPE      C211           31.9827195877       11.1626075017       -5.3722851829  MEMB      168             0.0000000000
     19385       168  SOPE      H11R           31.4775317704       12.0713531515       -5.7638049161  MEMB      168             0.0000000000
     19386       168  SOPE      H11S           33.0829816700       11.2748765784       -5.4778315924  MEMB      168             0.0000000000
     19387       168  SOPE      C212           31.6362116607       11.0837989160       -3.8393649471  MEMB      168             0.0000000000
     19388       168  SOPE      H12R           30.5305952996       11.0084717545       -3.7602508523  MEMB      168             0.0000000000
     19389       168  SOPE      H12S           32.1024961477       11.8883649983       -3.2314402284  MEMB      168             0.0000000000
     19390       168  SOPE      C213           32.0281371361        9.8285183817       -3.0080685200  MEMB      168             0.0000000000
     19391       168  SOPE      H13R           33.1081452844        9.7336871489       -2.7653545749  MEMB      168             0.0000000000
     19392       168  SOPE      H13S           31.7337772641        8.9056868501       -3.5521784453  MEMB      168             0.0000000000
     19393       168  SOPE      C214           31.2787984925        9.6673860481       -1.6096851795  MEMB      168             0.0000000000
     19394       168  SOPE      H14R           31.7244868636        8.8103897114       -1.0608324640  MEMB      168             0.0000000000
     19395       168  SOPE      H14S           30.1783388996        9.6309539067       -1.7579488372  MEMB      168             0.0000000000
     19396       168  SOPE      C215           31.6476276692       10.8623047714       -0.7038082208  MEMB      168             0.0000000000
     19397       168  SOPE      H15R           31.1945999559       11.7925088949       -1.1085395225  MEMB      168             0.0000000000
     19398       168  SOPE      H15S           32.7315061623       11.0854436301       -0.8024869353  MEMB      168             0.0000000000
     19399       168  SOPE      C216           31.3076314226       10.7049883512        0.7672366170  MEMB      168             0.0000000000
     19400       168  SOPE      H16R           31.9354225589       11.4541029162        1.2954660727  MEMB      168             0.0000000000
     19401       168  SOPE      H16S           31.7683448365        9.7496997819        1.0981254960  MEMB      168             0.0000000000
     19402       168  SOPE      C217           29.7897517460       10.6051229806        1.0888555038  MEMB      168             0.0000000000
     19403       168  SOPE      H17R           29.3692064369        9.7808242292        0.4740429517  MEMB      168             0.0000000000
     19404       168  SOPE      H17S           29.1799702394       11.5186320876        0.9215573239  MEMB      168             0.0000000000
     19405       168  SOPE      C218           29.6415604430       10.2391668687        2.6039361211  MEMB      168             0.0000000000
     19406       168  SOPE      H18R           28.6137860793       10.5503167205        2.8888715154  MEMB      168             0.0000000000
     19407       168  SOPE      H18S           30.3341344582       10.7341262998        3.3178541745  MEMB      168             0.0000000000
     19408       168  SOPE      H18T           29.8391253786        9.1604227141        2.7817012015  MEMB      168             0.0000000000
     19409       168  SOPE      C33            32.6919964836       16.9045187745      -11.7332361920  MEMB      168             0.0000000000
     19410       168  SOPE      H3X            31.8894577676       16.1409073812      -11.6486756500  MEMB      168             0.0000000000
     19411       168  SOPE      H3Y            32.3000244984       17.7999774270      -12.2612816613  MEMB      168             0.0000000000
     19412       168  SOPE      C34            33.0899282301       17.4909734555      -10.3271525276  MEMB      168             0.0000000000
     19413       168  SOPE      H4X            32.2324969017       18.0305335668       -9.8710741073  MEMB      168             0.0000000000
     19414       168  SOPE      H4Y            33.8784939561       18.2136748113      -10.6274659492  MEMB      168             0.0000000000
     19415       168  SOPE      C35            33.6569011182       16.5667409795       -9.2472436692  MEMB      168             0.0000000000
     19416       168  SOPE      H5X            34.1374581488       17.2518276692       -8.5164619285  MEMB      168             0.0000000000
     19417       168  SOPE      H5Y            34.3380896126       15.7625646048       -9.5988165595  MEMB      168             0.0000000000
     19418       168  SOPE      C36            32.5465750806       15.7153616647       -8.5218502728  MEMB      168             0.0000000000
     19419       168  SOPE      H6X            33.0323251841       15.0373858755       -7.7878763795  MEMB      168             0.0000000000
     19420       168  SOPE      H6Y            32.0818944972       14.9919824029       -9.2254944710  MEMB      168             0.0000000000
     19421       168  SOPE      C37            31.4378480988       16.5702121141       -7.8135508329  MEMB      168             0.0000000000
     19422       168  SOPE      H7X            30.6328295417       16.8652007848       -8.5201255363  MEMB      168             0.0000000000
     19423       168  SOPE      H7Y            31.8574589695       17.5053232688       -7.3848144470  MEMB      168             0.0000000000
     19424       168  SOPE      C38            30.8359849673       15.8115130759       -6.5666377336  MEMB      168             0.0000000000
     19425       168  SOPE      H8X            30.6443263504       14.7525237540       -6.8425535311  MEMB      168             0.0000000000
     19426       168  SOPE      H8Y            29.8389475942       16.1732110775       -6.2358626544  MEMB      168             0.0000000000
     19427       168  SOPE      C39            31.8209857076       15.9285665174       -5.4109382160  MEMB      168             0.0000000000
     19428       168  SOPE      H9X            31.6136609937       16.8617433100       -4.8447950439  MEMB      168             0.0000000000
     19429       168  SOPE      H9Y            32.8348320862       16.0232256503       -5.8553222398  MEMB      168             0.0000000000
     19430       168  SOPE      C310           31.7092740796       14.8291647941       -4.3516624105  MEMB      168             0.0000000000
     19431       168  SOPE      H10X           32.0373143357       13.8987364200       -4.8625575390  MEMB      168             0.0000000000
     19432       168  SOPE      H10Y           30.6664549101       14.6634716565       -4.0061261332  MEMB      168             0.0000000000
     19433       168  SOPE      C311           32.6384158345       14.9441675842       -3.1377367089  MEMB      168             0.0000000000
     19434       168  SOPE      H11X           33.7165755189       14.8795456166       -3.3979618243  MEMB      168             0.0000000000
     19435       168  SOPE      H11Y           32.3751347194       14.0566049286       -2.5235398960  MEMB      168             0.0000000000
     19436       168  SOPE      C312           32.3023042490       16.2397206939       -2.3126485526  MEMB      168             0.0000000000
     19437       168  SOPE      H12X           31.2243313634       16.4794656422       -2.4343776567  MEMB      168             0.0000000000
     19438       168  SOPE      H12Y           32.8035810584       17.1822172517       -2.6204506301  MEMB      168             0.0000000000
     19439       168  SOPE      C313           32.4834204879       16.1339370369       -0.8517894850  MEMB      168             0.0000000000
     19440       168  SOPE      H13X           32.2591905175       17.1225319545       -0.3971224897  MEMB      168             0.0000000000
     19441       168  SOPE      H13Y           33.5696351766       15.9282940092       -0.7414743100  MEMB      168             0.0000000000
     19442       168  SOPE      C314           31.5425662117       15.1768603431       -0.1176313274  MEMB      168             0.0000000000
     19443       168  SOPE      H14X           32.0820071216       14.8182380161        0.7849839136  MEMB      168             0.0000000000
     19444       168  SOPE      H14Y           31.4788286445       14.2524038537       -0.7305253106  MEMB      168             0.0000000000
     19445       168  SOPE      C315           30.2232781511       15.7356318994        0.1884397246  MEMB      168             0.0000000000
     19446       168  SOPE      H15X           29.6659098392       15.9534885431       -0.7476155829  MEMB      168             0.0000000000
     19447       168  SOPE      H15Y           30.2336447313       16.6809567627        0.7720276901  MEMB      168             0.0000000000
     19448       168  SOPE      C316           29.3576836787       14.7091133711        0.9744475023  MEMB      168             0.0000000000
     19449       168  SOPE      H16X           29.7527001209       14.3290206004        1.9407876771  MEMB      168             0.0000000000
     19450       168  SOPE      H16Y           29.3727355238       13.8601141007        0.2580022893  MEMB      168             0.0000000000
     19451       168  SOPE      C317           27.8304748375       14.9902669926        1.2619293515  MEMB      168             0.0000000000
     19452       168  SOPE      H17X           27.7304306120       15.8462103568        1.9631249684  MEMB      168             0.0000000000
     19453       168  SOPE      H17Y           27.4000037720       14.1345030218        1.8246762814  MEMB      168             0.0000000000
     19454       168  SOPE      C318           26.8672288332       15.2954470387        0.1011066472  MEMB      168             0.0000000000
     19455       168  SOPE      H18X           26.7806709503       14.3484645373       -0.4733972027  MEMB      168             0.0000000000
     19456       168  SOPE      H18Y           27.2165480012       16.1110710192       -0.5675154609  MEMB      168             0.0000000000
     19457       168  SOPE      H18Z           25.8518576539       15.5255139164        0.4889338329  MEMB      168             0.0000000000
     19458       169  SAPS      N              34.5389058428      -15.2321285085      -20.7290126334  MEMB      169             0.0000000000
     19459       169  SAPS      HN1            34.8064368252      -16.0739810250      -20.1800943477  MEMB      169             0.0000000000
     19460       169  SAPS      HN2            35.1068930288      -15.0463652555      -21.5801780835  MEMB      169             0.0000000000
     19461       169  SAPS      HN3            34.5134207622      -14.4216371107      -20.0778181081  MEMB      169             0.0000000000
     19462       169  SAPS      C12            33.1519048240      -15.3787353245      -21.2966446583  MEMB      169             0.0000000000
     19463       169  SAPS      H12A           32.9894745496      -14.6548606539      -22.0815153618  MEMB      169             0.0000000000
     19464       169  SAPS      C13            32.9348441932      -16.7624392982      -21.9322061621  MEMB      169             0.0000000000
     19465       169  SAPS      O13A           33.8759590709      -17.5757139759      -21.6931016264  MEMB      169             0.0000000000
     19466       169  SAPS      O13B           32.1658585244      -16.8928547318      -22.9327698997  MEMB      169             0.0000000000
     19467       169  SAPS      C11            32.0580173499      -15.1607222942      -20.2422222511  MEMB      169             0.0000000000
     19468       169  SAPS      H11A           32.1713496723      -16.0450316252      -19.5792940255  MEMB      169             0.0000000000
     19469       169  SAPS      H11B           31.0433335036      -15.2797099201      -20.6787766361  MEMB      169             0.0000000000
     19470       169  SAPS      P              31.4363222510      -13.6758293159      -18.2415185224  MEMB      169             0.0000000000
     19471       169  SAPS      O13            31.6544605021      -12.2989967651      -17.7393674013  MEMB      169             0.0000000000
     19472       169  SAPS      O14            30.0546711745      -14.2079445014      -18.3946497434  MEMB      169             0.0000000000
     19473       169  SAPS      O12            32.3006503228      -13.8810316399      -19.5833256399  MEMB      169             0.0000000000
     19474       169  SAPS      O11            32.1860493442      -14.5150020439      -17.2151814472  MEMB      169             0.0000000000
     19475       169  SAPS      C1             33.5602032452      -14.3410566184      -16.9256769592  MEMB      169             0.0000000000
     19476       169  SAPS      HA             34.1696318607      -14.1251843557      -17.8291795851  MEMB      169             0.0000000000
     19477       169  SAPS      HB             33.7307409776      -13.5389191459      -16.1761348085  MEMB      169             0.0000000000
     19478       169  SAPS      C2             33.9914177003      -15.6628067775      -16.3401111582  MEMB      169             0.0000000000
     19479       169  SAPS      HS             33.9881193030      -16.4582288853      -17.1157487783  MEMB      169             0.0000000000
     19480       169  SAPS      O21            33.0712718185      -15.8988702042      -15.2169194401  MEMB      169             0.0000000000
     19481       169  SAPS      C21            32.6799554055      -17.0939162497      -15.0828718262  MEMB      169             0.0000000000
     19482       169  SAPS      O22            32.8373726669      -18.0315933681      -15.8882580387  MEMB      169             0.0000000000
     19483       169  SAPS      C22            31.7842974518      -17.2484274207      -13.8227648320  MEMB      169             0.0000000000
     19484       169  SAPS      H2R            32.1544110820      -18.0415976250      -13.1385004957  MEMB      169             0.0000000000
     19485       169  SAPS      H2S            31.8790188241      -16.3074341301      -13.2397723562  MEMB      169             0.0000000000
     19486       169  SAPS      C3             35.3961688059      -15.5777489392      -15.7730575986  MEMB      169             0.0000000000
     19487       169  SAPS      HX             36.1364969970      -15.3504909858      -16.5696686309  MEMB      169             0.0000000000
     19488       169  SAPS      HY             35.6918086431      -16.5767363138      -15.3871276211  MEMB      169             0.0000000000
     19489       169  SAPS      O31            35.4987407388      -14.5050001781      -14.7792900954  MEMB      169             0.0000000000
     19490       169  SAPS      C31            35.6210530739      -14.9267634941      -13.5185390151  MEMB      169             0.0000000000
     19491       169  SAPS      O32            35.8384545138      -16.1011476822      -13.1905217032  MEMB      169             0.0000000000
     19492       169  SAPS      C32            35.2545637823      -13.7338351122      -12.5580019542  MEMB      169             0.0000000000
     19493       169  SAPS      H2X            34.7111597184      -12.9601295798      -13.1414506674  MEMB      169             0.0000000000
     19494       169  SAPS      H2Y            36.1991368497      -13.3273364855      -12.1374524008  MEMB      169             0.0000000000
     19495       169  SAPS      C23            30.3302958131      -17.5568056838      -14.1749293028  MEMB      169             0.0000000000
     19496       169  SAPS      H3R            30.3703122220      -18.5105661242      -14.7433132665  MEMB      169             0.0000000000
     19497       169  SAPS      H3S            30.0473474809      -16.7202777821      -14.8490824365  MEMB      169             0.0000000000
     19498       169  SAPS      C24            29.3733581012      -17.5733469521      -12.9583574382  MEMB      169             0.0000000000
     19499       169  SAPS      H4R            29.6330028412      -18.1966092065      -12.0760594293  MEMB      169             0.0000000000
     19500       169  SAPS      H4S            28.3965849442      -17.8446189890      -13.4129413472  MEMB      169             0.0000000000
     19501       169  SAPS      C25            29.2260931690      -16.1317114435      -12.4095436342  MEMB      169             0.0000000000
     19502       169  SAPS      H5R            28.7827941390      -15.4066121923      -13.1079108387  MEMB      169             0.0000000000
     19503       169  SAPS      C26            29.8193930826      -15.7070298149      -11.2882368050  MEMB      169             0.0000000000
     19504       169  SAPS      H6R            29.6331968635      -14.6261171565      -11.2048178794  MEMB      169             0.0000000000
     19505       169  SAPS      C27            30.6766270500      -16.3261168995      -10.1806205943  MEMB      169             0.0000000000
     19506       169  SAPS      H7R            30.8957862431      -15.5394085351       -9.4273739282  MEMB      169             0.0000000000
     19507       169  SAPS      H7S            31.6473033188      -16.5688926833      -10.6634950248  MEMB      169             0.0000000000
     19508       169  SAPS      C28            30.1071354438      -17.5355859514       -9.6142438497  MEMB      169             0.0000000000
     19509       169  SAPS      H8R            29.0795367209      -17.7810467448       -9.9204950779  MEMB      169             0.0000000000
     19510       169  SAPS      C29            30.7047106398      -18.3382730386       -8.7166182066  MEMB      169             0.0000000000
     19511       169  SAPS      H9R            30.1904307820      -19.2808779772       -8.4778457026  MEMB      169             0.0000000000
     19512       169  SAPS      C210           32.1041757160      -18.0396099827       -8.2267349341  MEMB      169             0.0000000000
     19513       169  SAPS      H10R           32.2123251896      -18.3428678713       -7.1634108866  MEMB      169             0.0000000000
     19514       169  SAPS      H10S           32.2792899878      -16.9512161134       -8.0886959874  MEMB      169             0.0000000000
     19515       169  SAPS      C211           33.2590193894      -18.6692004153       -9.0101000671  MEMB      169             0.0000000000
     19516       169  SAPS      H11R           33.0114972914      -19.5214284464       -9.6600539539  MEMB      169             0.0000000000
     19517       169  SAPS      C212           34.5058334455      -18.2377299857       -9.0373852051  MEMB      169             0.0000000000
     19518       169  SAPS      H12R           35.2065922496      -18.7507968195       -9.7124410882  MEMB      169             0.0000000000
     19519       169  SAPS      C213           35.1502200247      -17.0515324716       -8.3982084940  MEMB      169             0.0000000000
     19520       169  SAPS      H13R           34.2911209876      -16.3877356085       -8.1623198712  MEMB      169             0.0000000000
     19521       169  SAPS      H13S           35.7525951792      -16.4973953513       -9.1494724105  MEMB      169             0.0000000000
     19522       169  SAPS      C214           36.0855916274      -17.2507215336       -7.2085649770  MEMB      169             0.0000000000
     19523       169  SAPS      H14R           36.6409394115      -18.2001710523       -7.1969712787  MEMB      169             0.0000000000
     19524       169  SAPS      C215           36.3852058015      -16.3790118387       -6.2501682808  MEMB      169             0.0000000000
     19525       169  SAPS      H15R           37.0266099316      -16.5558442309       -5.3741936936  MEMB      169             0.0000000000
     19526       169  SAPS      C216           35.8218435813      -14.9775090741       -6.1466267811  MEMB      169             0.0000000000
     19527       169  SAPS      H16R           34.8168584565      -14.9516992689       -6.6195534957  MEMB      169             0.0000000000
     19528       169  SAPS      H16S           36.5668482096      -14.2986216279       -6.6139615917  MEMB      169             0.0000000000
     19529       169  SAPS      C217           35.8237703078      -14.5018405119       -4.6686937874  MEMB      169             0.0000000000
     19530       169  SAPS      H17R           35.5030648849      -13.4392797368       -4.6193628634  MEMB      169             0.0000000000
     19531       169  SAPS      H17S           36.8805082053      -14.6081578907       -4.3426219178  MEMB      169             0.0000000000
     19532       169  SAPS      C218           34.8113604665      -15.2402372756       -3.8230434512  MEMB      169             0.0000000000
     19533       169  SAPS      H18R           35.1186586617      -16.3045474268       -3.7385888556  MEMB      169             0.0000000000
     19534       169  SAPS      H18S           33.8184845783      -15.0985417484       -4.3009981804  MEMB      169             0.0000000000
     19535       169  SAPS      C219           34.7708935757      -14.7775561159       -2.3323552699  MEMB      169             0.0000000000
     19536       169  SAPS      H19R           35.0026369878      -13.6910043935       -2.3369553200  MEMB      169             0.0000000000
     19537       169  SAPS      H19S           35.5837049905      -15.4325378671       -1.9520172746  MEMB      169             0.0000000000
     19538       169  SAPS      C220           33.4459466191      -15.0257306733       -1.6280046812  MEMB      169             0.0000000000
     19539       169  SAPS      H20R           33.1864968213      -16.1026744617       -1.7128501982  MEMB      169             0.0000000000
     19540       169  SAPS      H20S           32.6193724165      -14.4100976491       -2.0428426709  MEMB      169             0.0000000000
     19541       169  SAPS      H20T           33.6029692404      -14.8227494947       -0.5470498196  MEMB      169             0.0000000000
     19542       169  SAPS      C33            34.2717341619      -14.3103627873      -11.4598563699  MEMB      169             0.0000000000
     19543       169  SAPS      H3X            34.8222588470      -14.9222849402      -10.7136692236  MEMB      169             0.0000000000
     19544       169  SAPS      H3Y            33.4338324014      -14.9100390401      -11.8753438729  MEMB      169             0.0000000000
     19545       169  SAPS      C34            33.8070584433      -13.1572660714      -10.4598282605  MEMB      169             0.0000000000
     19546       169  SAPS      H4X            33.6334379030      -12.3377012768      -11.1895478383  MEMB      169             0.0000000000
     19547       169  SAPS      H4Y            34.5816063962      -12.7212451501       -9.7932829285  MEMB      169             0.0000000000
     19548       169  SAPS      C35            32.4898210732      -13.5022656584       -9.7331782129  MEMB      169             0.0000000000
     19549       169  SAPS      H5X            32.6494759681      -14.2867757662       -8.9628693820  MEMB      169             0.0000000000
     19550       169  SAPS      H5Y            31.6906150250      -13.7864923303      -10.4506776638  MEMB      169             0.0000000000
     19551       169  SAPS      C36            32.0509740518      -12.3188544047       -8.9625293803  MEMB      169             0.0000000000
     19552       169  SAPS      H6X            31.5873173250      -11.5507980986       -9.6178413324  MEMB      169             0.0000000000
     19553       169  SAPS      H6Y            32.7979437776      -11.9015130852       -8.2538803688  MEMB      169             0.0000000000
     19554       169  SAPS      C37            30.9081548539      -12.7903450796       -8.0710102262  MEMB      169             0.0000000000
     19555       169  SAPS      H7X            31.2241723494      -13.6088414177       -7.3894552663  MEMB      169             0.0000000000
     19556       169  SAPS      H7Y            30.0743376588      -13.1315424048       -8.7211288459  MEMB      169             0.0000000000
     19557       169  SAPS      C38            30.2968314774      -11.5931072845       -7.2980183126  MEMB      169             0.0000000000
     19558       169  SAPS      H8X            30.0762418500      -10.8284566306       -8.0732408260  MEMB      169             0.0000000000
     19559       169  SAPS      H8Y            30.9826236958      -11.1828279897       -6.5262142742  MEMB      169             0.0000000000
     19560       169  SAPS      C39            28.9712220451      -11.9084320865       -6.6764486245  MEMB      169             0.0000000000
     19561       169  SAPS      H9X            28.1930499928      -11.7686297091       -7.4569772217  MEMB      169             0.0000000000
     19562       169  SAPS      H9Y            28.8100116550      -11.2038406552       -5.8327173364  MEMB      169             0.0000000000
     19563       169  SAPS      C310           28.7234448910      -13.3978501214       -6.3051507907  MEMB      169             0.0000000000
     19564       169  SAPS      H10X           28.8900346994      -14.0940435233       -7.1547886780  MEMB      169             0.0000000000
     19565       169  SAPS      H10Y           27.6567338986      -13.4679490205       -6.0026031433  MEMB      169             0.0000000000
     19566       169  SAPS      C311           29.5681634229      -13.8920818841       -5.1313545257  MEMB      169             0.0000000000
     19567       169  SAPS      H11X           29.6519057846      -13.2971438607       -4.1968182594  MEMB      169             0.0000000000
     19568       169  SAPS      H11Y           30.6305735655      -13.7649285460       -5.4304154004  MEMB      169             0.0000000000
     19569       169  SAPS      C312           29.3278423949      -15.3598975176       -4.9573439165  MEMB      169             0.0000000000
     19570       169  SAPS      H12X           29.0526758616      -15.9509515954       -5.8569321958  MEMB      169             0.0000000000
     19571       169  SAPS      H12Y           28.3711017585      -15.4478838617       -4.3994670829  MEMB      169             0.0000000000
     19572       169  SAPS      C313           30.4752656325      -16.1771706343       -4.3521327973  MEMB      169             0.0000000000
     19573       169  SAPS      H13X           30.5850058214      -15.8770602170       -3.2880779077  MEMB      169             0.0000000000
     19574       169  SAPS      H13Y           31.3429760018      -15.7931971948       -4.9300297747  MEMB      169             0.0000000000
     19575       169  SAPS      C314           30.4614977499      -17.6888186092       -4.3900251033  MEMB      169             0.0000000000
     19576       169  SAPS      H14X           31.0282932930      -17.9611029201       -5.3059533486  MEMB      169             0.0000000000
     19577       169  SAPS      H14Y           29.4700579497      -18.1882104485       -4.4344783364  MEMB      169             0.0000000000
     19578       169  SAPS      C315           31.3066072283      -18.2793910144       -3.2879545940  MEMB      169             0.0000000000
     19579       169  SAPS      H15X           30.7695875673      -18.0064969056       -2.3544347254  MEMB      169             0.0000000000
     19580       169  SAPS      H15Y           32.3314651550      -17.8556189210       -3.2215879719  MEMB      169             0.0000000000
     19581       169  SAPS      C316           31.5259906483      -19.8187736588       -3.5070993000  MEMB      169             0.0000000000
     19582       169  SAPS      H16X           32.5213695885      -19.9120182752       -3.9917107587  MEMB      169             0.0000000000
     19583       169  SAPS      H16Y           30.7616427072      -20.2238868060       -4.2042198746  MEMB      169             0.0000000000
     19584       169  SAPS      C317           31.5044192096      -20.5971200467       -2.1483941144  MEMB      169             0.0000000000
     19585       169  SAPS      H17X           30.4559559877      -20.4793018641       -1.8003077582  MEMB      169             0.0000000000
     19586       169  SAPS      H17Y           32.2103333183      -20.0627443045       -1.4772405651  MEMB      169             0.0000000000
     19587       169  SAPS      C318           32.0421292848      -22.0222988566       -2.3108921447  MEMB      169             0.0000000000
     19588       169  SAPS      H18X           32.1658521908      -22.4334772951       -1.2862222633  MEMB      169             0.0000000000
     19589       169  SAPS      H18Y           33.0383707378      -22.1417491084       -2.7879201943  MEMB      169             0.0000000000
     19590       169  SAPS      H18Z           31.3628672566      -22.5698055472       -2.9987579727  MEMB      169             0.0000000000
     19591       170  OSM       N             -34.0228025398      -13.3632039913      -22.2256820816  MEMB      170             0.0000000000
     19592       170  OSM       C15           -32.7769439955      -12.4892380731      -22.2455598545  MEMB      170             0.0000000000
     19593       170  OSM       H15A          -32.1422728552      -12.7352333260      -23.0840578569  MEMB      170             0.0000000000
     19594       170  OSM       H15B          -32.1486888863      -12.5763542226      -21.3714282192  MEMB      170             0.0000000000
     19595       170  OSM       H15C          -33.0662868189      -11.4645159495      -22.4261844889  MEMB      170             0.0000000000
     19596       170  OSM       C14           -34.8840594774      -12.8897551950      -23.3672593188  MEMB      170             0.0000000000
     19597       170  OSM       H14A          -34.3809939178      -13.2684998804      -24.2446859409  MEMB      170             0.0000000000
     19598       170  OSM       H14B          -35.0158612194      -11.8182465241      -23.3373011640  MEMB      170             0.0000000000
     19599       170  OSM       H14C          -35.8894537841      -13.2702690459      -23.2633768944  MEMB      170             0.0000000000
     19600       170  OSM       C13           -33.7018565582      -14.7596025069      -22.4339815986  MEMB      170             0.0000000000
     19601       170  OSM       H13A          -33.2107965532      -14.9538711501      -23.3760642916  MEMB      170             0.0000000000
     19602       170  OSM       H13B          -34.5652849384      -15.3966687965      -22.3113529456  MEMB      170             0.0000000000
     19603       170  OSM       H13C          -32.9441523036      -15.0283563545      -21.7128325653  MEMB      170             0.0000000000
     19604       170  OSM       C12           -34.5695886682      -13.1830159392      -20.8723498622  MEMB      170             0.0000000000
     19605       170  OSM       H12A          -33.8746237093      -13.3781091843      -20.0690053474  MEMB      170             0.0000000000
     19606       170  OSM       H12B          -35.3181630501      -13.9506607157      -20.7428970912  MEMB      170             0.0000000000
     19607       170  OSM       C11           -35.3012285260      -11.8486856235      -20.6005491518  MEMB      170             0.0000000000
     19608       170  OSM       H11A          -35.7265473767      -11.8892205019      -19.5749849737  MEMB      170             0.0000000000
     19609       170  OSM       H11B          -36.2022951544      -11.8525672137      -21.2504605498  MEMB      170             0.0000000000
     19610       170  OSM       P             -33.6890390169       -9.9833431640      -19.8513025622  MEMB      170             0.0000000000
     19611       170  OSM       O13           -32.4256333274       -9.7699270035      -20.6163480645  MEMB      170             0.0000000000
     19612       170  OSM       O14           -34.2465270091       -8.7649298609      -19.1892647920  MEMB      170             0.0000000000
     19613       170  OSM       O11           -33.4800570332      -11.0624522886      -18.7093806781  MEMB      170             0.0000000000
     19614       170  OSM       O12           -34.6716378454      -10.6272349507      -20.8883220324  MEMB      170             0.0000000000
     19615       170  OSM       C1S           -32.4762400482      -10.8085634107      -17.7138307424  MEMB      170             0.0000000000
     19616       170  OSM       H1S           -32.2488814002       -9.7340126280      -17.5465895366  MEMB      170             0.0000000000
     19617       170  OSM       H1T           -31.5820392491      -11.2935645817      -18.1604849155  MEMB      170             0.0000000000
     19618       170  OSM       NF            -32.2662670597      -10.7414479689      -15.2752495492  MEMB      170             0.0000000000
     19619       170  OSM       HNF           -31.5915903572      -11.3471767237      -14.8606254779  MEMB      170             0.0000000000
     19620       170  OSM       C2S           -32.8748128438      -11.5296376947      -16.4026137962  MEMB      170             0.0000000000
     19621       170  OSM       H2S           -33.9766841771      -11.5031152260      -16.2629811433  MEMB      170             0.0000000000
     19622       170  OSM       C3S           -32.2823804095      -12.9282367351      -16.3970784234  MEMB      170             0.0000000000
     19623       170  OSM       H3S           -31.1835786363      -12.8460763142      -16.5392242392  MEMB      170             0.0000000000
     19624       170  OSM       O3            -32.8207595961      -13.6269139865      -17.5248736362  MEMB      170             0.0000000000
     19625       170  OSM       HO3           -33.2118287850      -12.9413156879      -18.0713348522  MEMB      170             0.0000000000
     19626       170  OSM       C4S           -32.5773299436      -13.5681387673      -15.0886808056  MEMB      170             0.0000000000
     19627       170  OSM       H4S           -33.5887769890      -13.4098474239      -14.6862895148  MEMB      170             0.0000000000
     19628       170  OSM       C5S           -31.6854265061      -14.1611478910      -14.3377709128  MEMB      170             0.0000000000
     19629       170  OSM       H5S           -30.6579397538      -14.2287149420      -14.7246896391  MEMB      170             0.0000000000
     19630       170  OSM       C6S           -32.0283595284      -14.8104833721      -13.0624942718  MEMB      170             0.0000000000
     19631       170  OSM       H6S           -31.3829912284      -15.7003386473      -12.9013158239  MEMB      170             0.0000000000
     19632       170  OSM       H6T           -33.0772371191      -15.1759049976      -13.0878669065  MEMB      170             0.0000000000
     19633       170  OSM       C7S           -31.9074290501      -13.7436976293      -11.9383194897  MEMB      170             0.0000000000
     19634       170  OSM       H7S           -32.5202364461      -12.8577808475      -12.2102382889  MEMB      170             0.0000000000
     19635       170  OSM       H7T           -30.8677538924      -13.3664591055      -11.8330225903  MEMB      170             0.0000000000
     19636       170  OSM       C8S           -32.3759246431      -14.3852798099      -10.6322581915  MEMB      170             0.0000000000
     19637       170  OSM       H8S           -31.7225138268      -15.2584097287      -10.4200815691  MEMB      170             0.0000000000
     19638       170  OSM       H8T           -33.4137972856      -14.7353907048      -10.8181716481  MEMB      170             0.0000000000
     19639       170  OSM       C9S           -32.1268740627      -13.4799138298       -9.3843234495  MEMB      170             0.0000000000
     19640       170  OSM       H9S           -32.4575744282      -12.4284308130       -9.5233979826  MEMB      170             0.0000000000
     19641       170  OSM       H9T           -31.0416425123      -13.2424027259       -9.3708407618  MEMB      170             0.0000000000
     19642       170  OSM       C10S          -32.8116828895      -14.1233233643       -8.1239193524  MEMB      170             0.0000000000
     19643       170  OSM       H10S          -32.3516573613      -15.1131369993       -7.9166352855  MEMB      170             0.0000000000
     19644       170  OSM       H10T          -33.8180735961      -14.4801534543       -8.4307917431  MEMB      170             0.0000000000
     19645       170  OSM       C11S          -32.7885842973      -13.2673533569       -6.8636203473  MEMB      170             0.0000000000
     19646       170  OSM       H11S          -33.2195578909      -12.2606147525       -7.0508636287  MEMB      170             0.0000000000
     19647       170  OSM       H11T          -31.7181746317      -13.0141907166       -6.7072466033  MEMB      170             0.0000000000
     19648       170  OSM       C12S          -33.0057703754      -14.0613855043       -5.5446836629  MEMB      170             0.0000000000
     19649       170  OSM       H12S          -32.2636262187      -14.8850695295       -5.4733551275  MEMB      170             0.0000000000
     19650       170  OSM       H12T          -34.0047666262      -14.5456726124       -5.5023321217  MEMB      170             0.0000000000
     19651       170  OSM       C13S          -32.6821564133      -13.1775468030       -4.3468763584  MEMB      170             0.0000000000
     19652       170  OSM       H13S          -33.2676376265      -12.2335058927       -4.3647405812  MEMB      170             0.0000000000
     19653       170  OSM       H13T          -31.6160879235      -12.8656504037       -4.3236463918  MEMB      170             0.0000000000
     19654       170  OSM       C14S          -32.8077619358      -13.8369231423       -2.9460986243  MEMB      170             0.0000000000
     19655       170  OSM       H14S          -32.2387773822      -13.2482718548       -2.1950547066  MEMB      170             0.0000000000
     19656       170  OSM       H14T          -32.1897583498      -14.7567349439       -3.0257162842  MEMB      170             0.0000000000
     19657       170  OSM       C15S          -34.2514633343      -14.1809211359       -2.5369226423  MEMB      170             0.0000000000
     19658       170  OSM       H15S          -34.3883430700      -15.2791239472       -2.6345695270  MEMB      170             0.0000000000
     19659       170  OSM       H15T          -34.9675235772      -13.7715036588       -3.2812047283  MEMB      170             0.0000000000
     19660       170  OSM       C16S          -34.5464794529      -13.6858162971       -1.0979321623  MEMB      170             0.0000000000
     19661       170  OSM       H16S          -33.5470696975      -13.5233600936       -0.6406479040  MEMB      170             0.0000000000
     19662       170  OSM       H16T          -34.9612278498      -14.5022973862       -0.4689138644  MEMB      170             0.0000000000
     19663       170  OSM       C17S          -35.4379387788      -12.4873180569       -0.9517557733  MEMB      170             0.0000000000
     19664       170  OSM       H17S          -36.3822981979      -12.5635178544       -1.5320127437  MEMB      170             0.0000000000
     19665       170  OSM       H17T          -34.9012603377      -11.6688268954       -1.4774625351  MEMB      170             0.0000000000
     19666       170  OSM       C18S          -35.8409774834      -12.0100966300        0.4881709760  MEMB      170             0.0000000000
     19667       170  OSM       H18S          -35.9832966965      -12.9040638401        1.1322905088  MEMB      170             0.0000000000
     19668       170  OSM       H18T          -36.7408844328      -11.3586694713        0.4996374380  MEMB      170             0.0000000000
     19669       170  OSM       H18U          -35.0285592903      -11.2891558771        0.7217145672  MEMB      170             0.0000000000
     19670       170  OSM       C1F           -32.6008300176       -9.4555483817      -14.9974282151  MEMB      170             0.0000000000
     19671       170  OSM       OF            -33.4210613002       -8.8655871175      -15.6608017886  MEMB      170             0.0000000000
     19672       170  OSM       C2F           -31.7506696874       -8.7791658055      -13.8910970751  MEMB      170             0.0000000000
     19673       170  OSM       H2F           -31.4149103112       -7.8280661363      -14.3569253561  MEMB      170             0.0000000000
     19674       170  OSM       H2G           -30.8696587876       -9.4225042853      -13.6807251057  MEMB      170             0.0000000000
     19675       170  OSM       C3F           -32.5036451975       -8.4890083661      -12.6373679426  MEMB      170             0.0000000000
     19676       170  OSM       H3F           -33.4941761780       -8.1954043663      -13.0459829294  MEMB      170             0.0000000000
     19677       170  OSM       H3G           -32.0622439339       -7.6210621985      -12.1024328456  MEMB      170             0.0000000000
     19678       170  OSM       C4F           -32.5907366225       -9.6999442163      -11.6302709503  MEMB      170             0.0000000000
     19679       170  OSM       H4F           -32.8930168668      -10.6224997483      -12.1704924679  MEMB      170             0.0000000000
     19680       170  OSM       H4G           -33.3177955992       -9.4989368529      -10.8146103241  MEMB      170             0.0000000000
     19681       170  OSM       C5F           -31.1908410344      -10.0990325302      -11.0334094348  MEMB      170             0.0000000000
     19682       170  OSM       H5F           -30.4662035504      -10.4170584948      -11.8132055980  MEMB      170             0.0000000000
     19683       170  OSM       H5G           -31.2459334148      -11.0132441140      -10.4045188435  MEMB      170             0.0000000000
     19684       170  OSM       C6F           -30.5607627242       -9.0096445981      -10.1682518736  MEMB      170             0.0000000000
     19685       170  OSM       H6F           -30.4713929863       -8.0614671871      -10.7403476413  MEMB      170             0.0000000000
     19686       170  OSM       H6G           -29.5561149382       -9.3952889963       -9.8920588080  MEMB      170             0.0000000000
     19687       170  OSM       C7F           -31.3110061029       -8.5325768631       -8.9359616886  MEMB      170             0.0000000000
     19688       170  OSM       H7F           -32.3841238574       -8.3541071662       -9.1615455507  MEMB      170             0.0000000000
     19689       170  OSM       H7G           -30.9700338134       -7.5111271066       -8.6626512617  MEMB      170             0.0000000000
     19690       170  OSM       C8F           -31.3027194548       -9.5780986100       -7.7407277745  MEMB      170             0.0000000000
     19691       170  OSM       H8F           -31.6444235876      -10.5488569319       -8.1592823361  MEMB      170             0.0000000000
     19692       170  OSM       H8G           -32.1024962931       -9.1918381145       -7.0732847758  MEMB      170             0.0000000000
     19693       170  OSM       C9F           -30.0649011217       -9.7526306664       -6.9019897783  MEMB      170             0.0000000000
     19694       170  OSM       H9F           -29.3832598959      -10.5052933770       -7.3249118563  MEMB      170             0.0000000000
     19695       170  OSM       C10F          -29.8401903714       -9.2057824941       -5.7577448244  MEMB      170             0.0000000000
     19696       170  OSM       H10F          -28.9425768483       -9.5471017022       -5.2212827994  MEMB      170             0.0000000000
     19697       170  OSM       C11F          -30.7137234310       -8.3056922808       -4.9828424924  MEMB      170             0.0000000000
     19698       170  OSM       H11F          -31.7250012749       -8.2216644197       -5.4351455029  MEMB      170             0.0000000000
     19699       170  OSM       H11G          -30.2342740426       -7.3083886103       -5.0820119171  MEMB      170             0.0000000000
     19700       170  OSM       C12F          -30.9030240667       -8.5118407693       -3.4586504473  MEMB      170             0.0000000000
     19701       170  OSM       H12F          -31.5825316865       -7.6969453352       -3.1292032667  MEMB      170             0.0000000000
     19702       170  OSM       H12G          -29.9172206728       -8.2823722799       -3.0005498762  MEMB      170             0.0000000000
     19703       170  OSM       C13F          -31.3993422237       -9.8801130228       -3.0546660515  MEMB      170             0.0000000000
     19704       170  OSM       H13F          -30.5277449407      -10.5689943143       -3.0456417035  MEMB      170             0.0000000000
     19705       170  OSM       H13G          -32.1504957018      -10.2306525322       -3.7944038931  MEMB      170             0.0000000000
     19706       170  OSM       C14F          -32.1082664967       -9.9432565939       -1.6658121309  MEMB      170             0.0000000000
     19707       170  OSM       H14F          -32.5787766920      -10.9481171890       -1.6092766786  MEMB      170             0.0000000000
     19708       170  OSM       H14G          -32.9894219459       -9.2667833460       -1.6493791453  MEMB      170             0.0000000000
     19709       170  OSM       C15F          -31.1350467763       -9.5691727812       -0.5350810154  MEMB      170             0.0000000000
     19710       170  OSM       H15F          -30.5890350498       -8.6401664356       -0.8055254396  MEMB      170             0.0000000000
     19711       170  OSM       H15G          -30.3677358778      -10.3682962237       -0.4516724261  MEMB      170             0.0000000000
     19712       170  OSM       C16F          -31.8181595586       -9.3421613814        0.8092192925  MEMB      170             0.0000000000
     19713       170  OSM       H16F          -31.0586761034       -9.1566242469        1.5985745242  MEMB      170             0.0000000000
     19714       170  OSM       H16G          -32.2281567633      -10.3280664621        1.1161636006  MEMB      170             0.0000000000
     19715       170  OSM       C17F          -32.8405304980       -8.2120899758        0.9612573476  MEMB      170             0.0000000000
     19716       170  OSM       H17F          -33.5472766382       -8.5267145769        1.7586552255  MEMB      170             0.0000000000
     19717       170  OSM       H17G          -33.4954056553       -8.1270945768        0.0678182145  MEMB      170             0.0000000000
     19718       170  OSM       C18F          -32.2266683437       -6.8085086045        1.2933210173  MEMB      170             0.0000000000
     19719       170  OSM       H18F          -31.3361703574       -6.5098278382        0.6999215979  MEMB      170             0.0000000000
     19720       170  OSM       H18G          -31.8655342450       -6.9259078373        2.3374087000  MEMB      170             0.0000000000
     19721       170  OSM       H18H          -32.9501100872       -5.9710944713        1.1948801785  MEMB      170             0.0000000000
     19722       171  CHL1      C3            -12.5994470206       33.8274069282      -17.3682900000  MEMB      171             0.0000000000
     19723       171  CHL1      H3            -13.3361492359       33.0316162204      -17.6097200000  MEMB      171             0.0000000000
     19724       171  CHL1      O3            -12.6025105794       34.5120572718      -18.6317100000  MEMB      171             0.0000000000
     19725       171  CHL1      H3'           -12.5097129843       35.4331636329      -18.3776300000  MEMB      171             0.0000000000
     19726       171  CHL1      C4            -12.9165652593       34.8106077468      -16.2716200000  MEMB      171             0.0000000000
     19727       171  CHL1      H4A           -12.1888557853       35.6501007235      -16.2734800000  MEMB      171             0.0000000000
     19728       171  CHL1      H4B           -13.8898235435       35.3324692357      -16.3931200000  MEMB      171             0.0000000000
     19729       171  CHL1      C5            -12.9420310161       34.1531438989      -14.8922100000  MEMB      171             0.0000000000
     19730       171  CHL1      C6            -14.1195924424       33.9598866173      -14.1747400000  MEMB      171             0.0000000000
     19731       171  CHL1      H6            -15.1217137193       34.2945298831      -14.4809800000  MEMB      171             0.0000000000
     19732       171  CHL1      C7            -14.0659541995       33.3714818269      -12.8123500000  MEMB      171             0.0000000000
     19733       171  CHL1      H7A           -14.6434885845       34.0441793980      -12.1428200000  MEMB      171             0.0000000000
     19734       171  CHL1      H7B           -14.6328703407       32.4163210647      -12.8368100000  MEMB      171             0.0000000000
     19735       171  CHL1      C8            -12.6818956759       33.1279919732      -12.1971200000  MEMB      171             0.0000000000
     19736       171  CHL1      H8            -12.2905601077       34.1531413406      -12.0232200000  MEMB      171             0.0000000000
     19737       171  CHL1      C14           -12.8155376760       32.2686316199      -10.9437800000  MEMB      171             0.0000000000
     19738       171  CHL1      H14           -13.2449425434       31.2826242830      -11.2225600000  MEMB      171             0.0000000000
     19739       171  CHL1      C15           -13.6936645177       32.8087172208       -9.8031500000  MEMB      171             0.0000000000
     19740       171  CHL1      H15A          -13.5910209110       33.9024333920       -9.6370500000  MEMB      171             0.0000000000
     19741       171  CHL1      H15B          -14.7516696668       32.5485161944      -10.0204700000  MEMB      171             0.0000000000
     19742       171  CHL1      C16           -13.0971331328       32.1443991301       -8.6102400000  MEMB      171             0.0000000000
     19743       171  CHL1      H16A          -12.8009841000       32.9133015001       -7.8649900000  MEMB      171             0.0000000000
     19744       171  CHL1      H16B          -13.7593540782       31.3971544896       -8.1229800000  MEMB      171             0.0000000000
     19745       171  CHL1      C17           -11.8893748215       31.2779954647       -9.0490400000  MEMB      171             0.0000000000
     19746       171  CHL1      H17           -12.2994945477       30.3202870152       -9.4349400000  MEMB      171             0.0000000000
     19747       171  CHL1      C13           -11.4952633035       31.9605020681      -10.3040200000  MEMB      171             0.0000000000
     19748       171  CHL1      C18           -10.7186662867       33.2480577500       -9.9705100000  MEMB      171             0.0000000000
     19749       171  CHL1      H18A          -10.5904538970       33.9369835865      -10.8326400000  MEMB      171             0.0000000000
     19750       171  CHL1      H18B          -11.1104006322       33.8443390020       -9.1188600000  MEMB      171             0.0000000000
     19751       171  CHL1      H18C           -9.6920692909       32.9992154690       -9.6262600000  MEMB      171             0.0000000000
     19752       171  CHL1      C12           -10.7544582238       31.1133873354      -11.3254100000  MEMB      171             0.0000000000
     19753       171  CHL1      H12A           -9.7966169633       30.7520971870      -10.8937500000  MEMB      171             0.0000000000
     19754       171  CHL1      H12B          -11.3436002301       30.2138883251      -11.6049000000  MEMB      171             0.0000000000
     19755       171  CHL1      C11           -10.3699005973       31.9144383751      -12.6440100000  MEMB      171             0.0000000000
     19756       171  CHL1      H11A           -9.6415471512       32.7341956961      -12.4656200000  MEMB      171             0.0000000000
     19757       171  CHL1      H11B           -9.8458200486       31.2817815119      -13.3919500000  MEMB      171             0.0000000000
     19758       171  CHL1      C9            -11.7186561485       32.5532526259      -13.2253900000  MEMB      171             0.0000000000
     19759       171  CHL1      H9            -12.2816592725       31.6268950353      -13.4687600000  MEMB      171             0.0000000000
     19760       171  CHL1      C10           -11.5955572215       33.5006914192      -14.4761700000  MEMB      171             0.0000000000
     19761       171  CHL1      C19           -10.5492218708       34.5778432045      -14.1764900000  MEMB      171             0.0000000000
     19762       171  CHL1      H19A          -10.8405319213       35.2764489241      -13.3632100000  MEMB      171             0.0000000000
     19763       171  CHL1      H19B           -9.5400608685       34.1874261028      -13.9245000000  MEMB      171             0.0000000000
     19764       171  CHL1      H19C          -10.3482039024       35.1234659097      -15.1231700000  MEMB      171             0.0000000000
     19765       171  CHL1      C1            -11.0920443276       32.5753118754      -15.6660300000  MEMB      171             0.0000000000
     19766       171  CHL1      H1A            -9.9931302335       32.4177720794      -15.7093400000  MEMB      171             0.0000000000
     19767       171  CHL1      H1B           -11.7438286228       31.6757231650      -15.6499900000  MEMB      171             0.0000000000
     19768       171  CHL1      C2            -11.1820320823       33.2772508386      -17.0868100000  MEMB      171             0.0000000000
     19769       171  CHL1      H2A           -11.0555871096       32.4589597957      -17.8275700000  MEMB      171             0.0000000000
     19770       171  CHL1      H2B           -10.3545676726       34.0049367260      -17.2286200000  MEMB      171             0.0000000000
     19771       171  CHL1      C20           -10.8056172194       31.0274896989       -7.9913300000  MEMB      171             0.0000000000
     19772       171  CHL1      H20           -10.3911342019       31.9985831731       -7.6456300000  MEMB      171             0.0000000000
     19773       171  CHL1      C21            -9.6368604961       30.2173060187       -8.5412500000  MEMB      171             0.0000000000
     19774       171  CHL1      H21A           -9.0454143186       29.7742057364       -7.7116900000  MEMB      171             0.0000000000
     19775       171  CHL1      H21B           -8.8889556592       30.8631941496       -9.0489900000  MEMB      171             0.0000000000
     19776       171  CHL1      H21C           -9.9411717670       29.3414212559       -9.1532400000  MEMB      171             0.0000000000
     19777       171  CHL1      C22           -11.3619457864       30.4593380473       -6.6490200000  MEMB      171             0.0000000000
     19778       171  CHL1      H22A          -12.3801163606       30.7982858522       -6.3613400000  MEMB      171             0.0000000000
     19779       171  CHL1      H22B          -11.5586736567       29.3999476149       -6.9197900000  MEMB      171             0.0000000000
     19780       171  CHL1      C23           -10.3630375695       30.4819749064       -5.4521000000  MEMB      171             0.0000000000
     19781       171  CHL1      H23A           -9.4758649599       29.8928770001       -5.7686700000  MEMB      171             0.0000000000
     19782       171  CHL1      H23B          -10.0330230671       31.5357721463       -5.3299200000  MEMB      171             0.0000000000
     19783       171  CHL1      C24           -10.9932771206       29.8783830937       -4.2210700000  MEMB      171             0.0000000000
     19784       171  CHL1      H24A          -12.0062378627       30.3326842589       -4.1783200000  MEMB      171             0.0000000000
     19785       171  CHL1      H24B          -11.0056003619       28.7726287918       -4.3282700000  MEMB      171             0.0000000000
     19786       171  CHL1      C25           -10.2274288686       30.1164028605       -2.8630800000  MEMB      171             0.0000000000
     19787       171  CHL1      H25            -9.1680575543       29.8569615775       -3.0746200000  MEMB      171             0.0000000000
     19788       171  CHL1      C26           -10.6436056210       31.4777801457       -2.2905300000  MEMB      171             0.0000000000
     19789       171  CHL1      H26A          -11.6494164195       31.8491689885       -2.5816500000  MEMB      171             0.0000000000
     19790       171  CHL1      H26B          -10.5865901378       31.5650023399       -1.1844300000  MEMB      171             0.0000000000
     19791       171  CHL1      H26C          -10.0430596232       32.2223077774       -2.8556300000  MEMB      171             0.0000000000
     19792       171  CHL1      C27           -10.7411305024       29.0870910808       -1.8799400000  MEMB      171             0.0000000000
     19793       171  CHL1      H27A          -10.4523934836       28.0381330385       -2.1050100000  MEMB      171             0.0000000000
     19794       171  CHL1      H27B          -10.3568377583       29.2033398576       -0.8440200000  MEMB      171             0.0000000000
     19795       171  CHL1      H27C          -11.8492387528       29.1665683378       -1.8707700000  MEMB      171             0.0000000000
     19796       172  CHL1      C3             25.1990992047      -26.7294135577      -17.3189550000  MEMB      172             0.0000000000
     19797       172  CHL1      H3             26.2552733400      -26.3992397057      -17.2200050000  MEMB      172             0.0000000000
     19798       172  CHL1      O3             24.8676591953      -26.6947802423      -18.6810450000  MEMB      172             0.0000000000
     19799       172  CHL1      H3'            25.4059153979      -27.4010905741      -19.0457550000  MEMB      172             0.0000000000
     19800       172  CHL1      C4             25.0162634007      -28.1991757151      -16.8428650000  MEMB      172             0.0000000000
     19801       172  CHL1      H4A            23.9464438058      -28.4820761334      -16.9417850000  MEMB      172             0.0000000000
     19802       172  CHL1      H4B            25.5882278933      -28.8562849200      -17.5323450000  MEMB      172             0.0000000000
     19803       172  CHL1      C5             25.3257836102      -28.3337133526      -15.3692350000  MEMB      172             0.0000000000
     19804       172  CHL1      C6             26.1996415918      -29.2460320876      -14.8545150000  MEMB      172             0.0000000000
     19805       172  CHL1      H6             26.7201956965      -29.8400788535      -15.6201150000  MEMB      172             0.0000000000
     19806       172  CHL1      C7             26.4250571136      -29.4474732557      -13.3721550000  MEMB      172             0.0000000000
     19807       172  CHL1      H7A            26.3568654925      -30.5148400171      -13.0714550000  MEMB      172             0.0000000000
     19808       172  CHL1      H7B            27.4610507125      -29.0958427392      -13.1787950000  MEMB      172             0.0000000000
     19809       172  CHL1      C8             25.4511206045      -28.7055217075      -12.4983550000  MEMB      172             0.0000000000
     19810       172  CHL1      H8             24.4910354717      -29.2516053105      -12.3784750000  MEMB      172             0.0000000000
     19811       172  CHL1      C14            26.0226640756      -28.6719714548      -11.1006450000  MEMB      172             0.0000000000
     19812       172  CHL1      H14            26.9157393294      -28.0129138432      -11.1494950000  MEMB      172             0.0000000000
     19813       172  CHL1      C15            26.6349720857      -29.9043829013      -10.4212150000  MEMB      172             0.0000000000
     19814       172  CHL1      H15A           26.1072351749      -30.8691628155      -10.5793650000  MEMB      172             0.0000000000
     19815       172  CHL1      H15B           27.6508472388      -30.0510255311      -10.8464250000  MEMB      172             0.0000000000
     19816       172  CHL1      C16            26.7530495342      -29.4472997581       -8.9452650000  MEMB      172             0.0000000000
     19817       172  CHL1      H16A           26.2772370065      -30.1673309929       -8.2456350000  MEMB      172             0.0000000000
     19818       172  CHL1      H16B           27.8155029035      -29.3008205289       -8.6553250000  MEMB      172             0.0000000000
     19819       172  CHL1      C17            25.9773830416      -28.1544514764       -8.7451050000  MEMB      172             0.0000000000
     19820       172  CHL1      H17            26.7439483385      -27.3514420071       -8.7885150000  MEMB      172             0.0000000000
     19821       172  CHL1      C13            25.1249993477      -28.0378742212      -10.0591250000  MEMB      172             0.0000000000
     19822       172  CHL1      C18            23.8389720731      -28.7994957731       -9.8932650000  MEMB      172             0.0000000000
     19823       172  CHL1      H18A           23.1930959859      -28.8227774383      -10.7969350000  MEMB      172             0.0000000000
     19824       172  CHL1      H18B           23.9462873730      -29.8593497123       -9.5778050000  MEMB      172             0.0000000000
     19825       172  CHL1      H18C           23.1716816836      -28.3101417629       -9.1519250000  MEMB      172             0.0000000000
     19826       172  CHL1      C12            24.8668244385      -26.6033414886      -10.5249850000  MEMB      172             0.0000000000
     19827       172  CHL1      H12A           24.2047843754      -26.0913219656       -9.7943250000  MEMB      172             0.0000000000
     19828       172  CHL1      H12B           25.8728228111      -26.1575570720      -10.6784750000  MEMB      172             0.0000000000
     19829       172  CHL1      C11            24.1759250317      -26.5513548491      -11.9272950000  MEMB      172             0.0000000000
     19830       172  CHL1      H11A           23.0931983294      -26.7890902302      -11.8531350000  MEMB      172             0.0000000000
     19831       172  CHL1      H11B           24.1047850522      -25.4894334976      -12.2460150000  MEMB      172             0.0000000000
     19832       172  CHL1      C9             25.0968665659      -27.3264226777      -12.9935050000  MEMB      172             0.0000000000
     19833       172  CHL1      H9             26.0671730607      -26.7913771478      -13.0744750000  MEMB      172             0.0000000000
     19834       172  CHL1      C10            24.5650078969      -27.3778677811      -14.4358350000  MEMB      172             0.0000000000
     19835       172  CHL1      C19            23.0235537140      -27.7205455690      -14.3537550000  MEMB      172             0.0000000000
     19836       172  CHL1      H19A           22.8772211286      -28.7031524448      -13.8563750000  MEMB      172             0.0000000000
     19837       172  CHL1      H19B           22.5073157989      -26.8700252947      -13.8593450000  MEMB      172             0.0000000000
     19838       172  CHL1      H19C           22.6312895830      -27.8623673964      -15.3834850000  MEMB      172             0.0000000000
     19839       172  CHL1      C1             24.6520148845      -25.9247936656      -15.0056650000  MEMB      172             0.0000000000
     19840       172  CHL1      H1A            23.9324255512      -25.2338381315      -14.5166850000  MEMB      172             0.0000000000
     19841       172  CHL1      H1B            25.6596549614      -25.5064895840      -14.7958850000  MEMB      172             0.0000000000
     19842       172  CHL1      C2             24.2691333905      -25.9204868695      -16.4971750000  MEMB      172             0.0000000000
     19843       172  CHL1      H2A            24.1496128149      -24.8778017550      -16.8616550000  MEMB      172             0.0000000000
     19844       172  CHL1      H2B            23.2569079829      -26.3532671123      -16.6469150000  MEMB      172             0.0000000000
     19845       172  CHL1      C20            25.2451977983      -28.1269582769       -7.3622350000  MEMB      172             0.0000000000
     19846       172  CHL1      H20            24.6317538715      -29.0527385347       -7.3314650000  MEMB      172             0.0000000000
     19847       172  CHL1      C21            24.3688557378      -26.9400319180       -7.2052650000  MEMB      172             0.0000000000
     19848       172  CHL1      H21A           24.8379035407      -25.9416004256       -7.3373450000  MEMB      172             0.0000000000
     19849       172  CHL1      H21B           23.9459550662      -26.8739020491       -6.1800250000  MEMB      172             0.0000000000
     19850       172  CHL1      H21C           23.4488923295      -26.9227400288       -7.8279050000  MEMB      172             0.0000000000
     19851       172  CHL1      C22            26.2838058940      -28.2308237000       -6.2028350000  MEMB      172             0.0000000000
     19852       172  CHL1      H22A           26.9796795692      -29.0797549252       -6.3742750000  MEMB      172             0.0000000000
     19853       172  CHL1      H22B           26.8927364823      -27.3033159366       -6.1458750000  MEMB      172             0.0000000000
     19854       172  CHL1      C23            25.7352612496      -28.4501700553       -4.8136850000  MEMB      172             0.0000000000
     19855       172  CHL1      H23A           25.0363139341      -27.6189663437       -4.5794150000  MEMB      172             0.0000000000
     19856       172  CHL1      H23B           25.0852450755      -29.3346751544       -4.9853250000  MEMB      172             0.0000000000
     19857       172  CHL1      C24            26.7298071921      -28.7549606216       -3.7313550000  MEMB      172             0.0000000000
     19858       172  CHL1      H24A           27.1046193360      -29.7901685030       -3.8803350000  MEMB      172             0.0000000000
     19859       172  CHL1      H24B           27.5823752789      -28.0462425959       -3.8032650000  MEMB      172             0.0000000000
     19860       172  CHL1      C25            26.1877544982      -28.5233832490       -2.2855050000  MEMB      172             0.0000000000
     19861       172  CHL1      H25            26.0375528019      -27.4252706925       -2.2085750000  MEMB      172             0.0000000000
     19862       172  CHL1      C26            24.9013445312      -29.3052461360       -2.0087750000  MEMB      172             0.0000000000
     19863       172  CHL1      H26A           25.0761487487      -30.3990519013       -1.9228950000  MEMB      172             0.0000000000
     19864       172  CHL1      H26B           24.4853896216      -28.8802995599       -1.0703050000  MEMB      172             0.0000000000
     19865       172  CHL1      H26C           24.1776503005      -29.1816100860       -2.8426250000  MEMB      172             0.0000000000
     19866       172  CHL1      C27            27.1755385279      -28.9661662478       -1.3003950000  MEMB      172             0.0000000000
     19867       172  CHL1      H27A           27.3879033520      -30.0564722665       -1.3216450000  MEMB      172             0.0000000000
     19868       172  CHL1      H27B           28.1570962810      -28.5086535269       -1.5484750000  MEMB      172             0.0000000000
     19869       172  CHL1      H27C           26.9814337606      -28.7865714145       -0.2213350000  MEMB      172             0.0000000000
     19870       173  SAPC      N              -5.3260573235      -37.5752944195      -22.0481211187  MEMB      173             0.0000000000
     19871       173  SAPC      C12            -3.9865635506      -37.4189037832      -21.3664108265  MEMB      173             0.0000000000
     19872       173  SAPC      H12A           -3.2187193943      -37.3348288718      -22.1212264923  MEMB      173             0.0000000000
     19873       173  SAPC      H12B           -3.8253150927      -38.3730880527      -20.8868993353  MEMB      173             0.0000000000
     19874       173  SAPC      C13            -6.4113201445      -37.6717963077      -21.0029389269  MEMB      173             0.0000000000
     19875       173  SAPC      H13A           -6.1664716525      -38.4523036954      -20.2977741696  MEMB      173             0.0000000000
     19876       173  SAPC      H13B           -6.4976617387      -36.7059827116      -20.5273875020  MEMB      173             0.0000000000
     19877       173  SAPC      H13C           -7.3340905635      -37.9483382341      -21.4912209083  MEMB      173             0.0000000000
     19878       173  SAPC      C14            -5.5199528105      -36.3333034426      -22.8689804969  MEMB      173             0.0000000000
     19879       173  SAPC      H14A           -5.6488955484      -35.4126787198      -22.3192312508  MEMB      173             0.0000000000
     19880       173  SAPC      H14B           -4.6834705940      -36.3127737710      -23.5518243513  MEMB      173             0.0000000000
     19881       173  SAPC      H14C           -6.4031578069      -36.4495193399      -23.4795888113  MEMB      173             0.0000000000
     19882       173  SAPC      C15            -5.3888953062      -38.8030438574      -22.8546999935  MEMB      173             0.0000000000
     19883       173  SAPC      H15A           -6.4155172766      -39.0821485578      -23.0405698679  MEMB      173             0.0000000000
     19884       173  SAPC      H15B           -5.0036816841      -38.6093935752      -23.8449069525  MEMB      173             0.0000000000
     19885       173  SAPC      H15C           -4.8014770900      -39.5573252630      -22.3523063379  MEMB      173             0.0000000000
     19886       173  SAPC      C11            -3.7818834227      -36.2745265187      -20.3342016301  MEMB      173             0.0000000000
     19887       173  SAPC      H11A           -4.2023202781      -35.3570680823      -20.7987702262  MEMB      173             0.0000000000
     19888       173  SAPC      H11B           -2.6848145965      -36.1438851461      -20.2171812772  MEMB      173             0.0000000000
     19889       173  SAPC      P              -3.6540147791      -37.1254457381      -17.8956121838  MEMB      173             0.0000000000
     19890       173  SAPC      O13            -3.2948842181      -38.5129624575      -18.1216712554  MEMB      173             0.0000000000
     19891       173  SAPC      O14            -2.5507420663      -36.1391867392      -17.7006257353  MEMB      173             0.0000000000
     19892       173  SAPC      O12            -4.4504232434      -36.6092515175      -19.1215072453  MEMB      173             0.0000000000
     19893       173  SAPC      O11            -4.7198820136      -37.0687419197      -16.6852305866  MEMB      173             0.0000000000
     19894       173  SAPC      C1             -5.5683496460      -35.9980503295      -16.6791212770  MEMB      173             0.0000000000
     19895       173  SAPC      HA             -4.9416694866      -35.1258675432      -16.3947091764  MEMB      173             0.0000000000
     19896       173  SAPC      HB             -6.0595338280      -35.8532899816      -17.6650744238  MEMB      173             0.0000000000
     19897       173  SAPC      C2             -6.7587455754      -36.2133424540      -15.6489009585  MEMB      173             0.0000000000
     19898       173  SAPC      HS             -7.3131292847      -35.2536729439      -15.5713489674  MEMB      173             0.0000000000
     19899       173  SAPC      O21            -6.1682677189      -36.6830394707      -14.4089487383  MEMB      173             0.0000000000
     19900       173  SAPC      C21            -6.1902565501      -35.8038063262      -13.4373831008  MEMB      173             0.0000000000
     19901       173  SAPC      O22            -6.5163069422      -34.6176231099      -13.5406786263  MEMB      173             0.0000000000
     19902       173  SAPC      C22            -5.7122645429      -36.4698924525      -12.1538419657  MEMB      173             0.0000000000
     19903       173  SAPC      H2R            -6.0416042608      -35.9820443400      -11.2115787429  MEMB      173             0.0000000000
     19904       173  SAPC      H2S            -6.0264088622      -37.5344433155      -12.2024840300  MEMB      173             0.0000000000
     19905       173  SAPC      C3             -7.8060408676      -37.2797232554      -16.0863788906  MEMB      173             0.0000000000
     19906       173  SAPC      HX             -8.4792021988      -36.8633671954      -16.8660086800  MEMB      173             0.0000000000
     19907       173  SAPC      HY             -8.4498404851      -37.4398433169      -15.1951970523  MEMB      173             0.0000000000
     19908       173  SAPC      O31            -7.1047013614      -38.5475373390      -16.5590653051  MEMB      173             0.0000000000
     19909       173  SAPC      C31            -7.8225409786      -39.6719659682      -16.5784711231  MEMB      173             0.0000000000
     19910       173  SAPC      O32            -9.0518919295      -39.6949287309      -16.4159127394  MEMB      173             0.0000000000
     19911       173  SAPC      C32            -6.9172455423      -40.8852354553      -16.8063468429  MEMB      173             0.0000000000
     19912       173  SAPC      H2X            -5.9397655861      -40.6499215769      -17.2790850617  MEMB      173             0.0000000000
     19913       173  SAPC      H2Y            -7.3867739195      -41.5165832538      -17.5907342427  MEMB      173             0.0000000000
     19914       173  SAPC      C23            -4.1856605029      -36.6768402948      -12.2314916370  MEMB      173             0.0000000000
     19915       173  SAPC      H3R            -3.9681704025      -37.3316426693      -13.1022692589  MEMB      173             0.0000000000
     19916       173  SAPC      H3S            -3.8685987759      -37.1226644168      -11.2645207918  MEMB      173             0.0000000000
     19917       173  SAPC      C24            -3.3015179908      -35.4310447278      -12.4764254411  MEMB      173             0.0000000000
     19918       173  SAPC      H4R            -3.3603924967      -34.6386717409      -11.6998951052  MEMB      173             0.0000000000
     19919       173  SAPC      H4S            -3.6171581182      -34.9416199535      -13.4225523669  MEMB      173             0.0000000000
     19920       173  SAPC      C25            -1.8271615878      -35.6114323443      -12.6308750805  MEMB      173             0.0000000000
     19921       173  SAPC      H5R            -1.3797386942      -35.3710886852      -13.6066045677  MEMB      173             0.0000000000
     19922       173  SAPC      C26            -0.9835341268      -36.0890897744      -11.7110386025  MEMB      173             0.0000000000
     19923       173  SAPC      H6R             0.0906905009      -36.0980021925      -11.9476015020  MEMB      173             0.0000000000
     19924       173  SAPC      C27            -1.2813297686      -36.5528421680      -10.3040996307  MEMB      173             0.0000000000
     19925       173  SAPC      H7R            -2.3200915705      -36.3571783387       -9.9620314576  MEMB      173             0.0000000000
     19926       173  SAPC      H7S            -0.6375193639      -35.9276709005       -9.6491262381  MEMB      173             0.0000000000
     19927       173  SAPC      C28            -1.0382018351      -38.0019156583       -9.9818796098  MEMB      173             0.0000000000
     19928       173  SAPC      H8R            -0.7014795913      -38.5922085309      -10.8468497265  MEMB      173             0.0000000000
     19929       173  SAPC      C29            -1.2125548750      -38.6644798393       -8.8578823921  MEMB      173             0.0000000000
     19930       173  SAPC      H9R            -0.9458580934      -39.7316048027       -8.8470592325  MEMB      173             0.0000000000
     19931       173  SAPC      C210           -1.6944752564      -38.0063006230       -7.6125311964  MEMB      173             0.0000000000
     19932       173  SAPC      H10R           -2.2844437705      -37.0757215176       -7.7549412095  MEMB      173             0.0000000000
     19933       173  SAPC      H10S           -0.8422011691      -37.5285474696       -7.0836629438  MEMB      173             0.0000000000
     19934       173  SAPC      C211           -2.3999059847      -38.8447436210       -6.5685217899  MEMB      173             0.0000000000
     19935       173  SAPC      H11R           -2.1976450834      -39.9250976925       -6.6124061170  MEMB      173             0.0000000000
     19936       173  SAPC      C212           -3.0366056039      -38.5741968410       -5.4737473573  MEMB      173             0.0000000000
     19937       173  SAPC      H12R           -3.4182737951      -39.4599683342       -4.9448440795  MEMB      173             0.0000000000
     19938       173  SAPC      C213           -3.3498890666      -37.2087707948       -4.9142061028  MEMB      173             0.0000000000
     19939       173  SAPC      H13R           -2.3800294136      -36.8068968944       -4.5506254366  MEMB      173             0.0000000000
     19940       173  SAPC      H13S           -3.9040300967      -37.2955098286       -3.9551828460  MEMB      173             0.0000000000
     19941       173  SAPC      C214           -4.0677402495      -36.2266866488       -5.7645703917  MEMB      173             0.0000000000
     19942       173  SAPC      H14R           -4.9009371627      -36.6853931736       -6.3171743605  MEMB      173             0.0000000000
     19943       173  SAPC      C215           -3.7590623038      -34.9403951291       -6.0850541033  MEMB      173             0.0000000000
     19944       173  SAPC      H15R           -4.3559118412      -34.3283171122       -6.7772470262  MEMB      173             0.0000000000
     19945       173  SAPC      C216           -2.5208410322      -34.0932161980       -5.6738801428  MEMB      173             0.0000000000
     19946       173  SAPC      H16R           -2.0318330299      -33.7118732220       -6.5957093249  MEMB      173             0.0000000000
     19947       173  SAPC      H16S           -1.8392646762      -34.7813429962       -5.1295856203  MEMB      173             0.0000000000
     19948       173  SAPC      C217           -2.9555375450      -32.9375976104       -4.9027957222  MEMB      173             0.0000000000
     19949       173  SAPC      H17R           -3.7140219443      -32.3748442420       -5.4878865627  MEMB      173             0.0000000000
     19950       173  SAPC      H17S           -2.0027374972      -32.3670023475       -4.8725545785  MEMB      173             0.0000000000
     19951       173  SAPC      C218           -3.5153308211      -33.0451508652       -3.4711892323  MEMB      173             0.0000000000
     19952       173  SAPC      H18R           -2.9539989369      -33.7463592394       -2.8173281042  MEMB      173             0.0000000000
     19953       173  SAPC      H18S           -4.5571384587      -33.4026027572       -3.6167419114  MEMB      173             0.0000000000
     19954       173  SAPC      C219           -3.5734550292      -31.8115529553       -2.5529637419  MEMB      173             0.0000000000
     19955       173  SAPC      H19R           -4.2216338863      -32.0760102948       -1.6902664399  MEMB      173             0.0000000000
     19956       173  SAPC      H19S           -4.0275225135      -30.9426576879       -3.0756157307  MEMB      173             0.0000000000
     19957       173  SAPC      C220           -2.1451291022      -31.4118753929       -2.0843039318  MEMB      173             0.0000000000
     19958       173  SAPC      H20R           -1.5198511476      -31.2835095733       -2.9936266878  MEMB      173             0.0000000000
     19959       173  SAPC      H20S           -1.7220175398      -32.0917953134       -1.3142341688  MEMB      173             0.0000000000
     19960       173  SAPC      H20T           -2.1975289755      -30.4731747055       -1.4923433983  MEMB      173             0.0000000000
     19961       173  SAPC      C33            -6.6667432052      -41.5764486690      -15.4589283612  MEMB      173             0.0000000000
     19962       173  SAPC      H3X            -6.3459231716      -42.6005707022      -15.7462771327  MEMB      173             0.0000000000
     19963       173  SAPC      H3Y            -7.6183609947      -41.7534365363      -14.9135660484  MEMB      173             0.0000000000
     19964       173  SAPC      C34            -5.5575261897      -40.9707373870      -14.5893681428  MEMB      173             0.0000000000
     19965       173  SAPC      H4X            -5.6598145793      -39.8939252330      -14.3357267940  MEMB      173             0.0000000000
     19966       173  SAPC      H4Y            -4.6174366417      -41.1865424595      -15.1407122793  MEMB      173             0.0000000000
     19967       173  SAPC      C35            -5.5393411727      -41.7885547427      -13.2262564822  MEMB      173             0.0000000000
     19968       173  SAPC      H5X            -5.7091381847      -42.8542362503      -13.4904766353  MEMB      173             0.0000000000
     19969       173  SAPC      H5Y            -6.5175758136      -41.6109804019      -12.7304284947  MEMB      173             0.0000000000
     19970       173  SAPC      C36            -4.2904317245      -41.6243217760      -12.4094886943  MEMB      173             0.0000000000
     19971       173  SAPC      H6X            -3.2954659744      -41.6446441973      -12.9034024642  MEMB      173             0.0000000000
     19972       173  SAPC      H6Y            -4.2760972574      -42.4637049901      -11.6817859428  MEMB      173             0.0000000000
     19973       173  SAPC      C37            -4.2203753079      -40.2574806419      -11.6564610378  MEMB      173             0.0000000000
     19974       173  SAPC      H7X            -4.2341056363      -39.4619031062      -12.4318247817  MEMB      173             0.0000000000
     19975       173  SAPC      H7Y            -3.2768906583      -40.2267985246      -11.0706141900  MEMB      173             0.0000000000
     19976       173  SAPC      C38            -5.3887052662      -39.9506338763      -10.6034616304  MEMB      173             0.0000000000
     19977       173  SAPC      H8X            -6.3197905752      -39.9579538071      -11.2095535117  MEMB      173             0.0000000000
     19978       173  SAPC      H8Y            -5.1215492457      -38.9603307840      -10.1765555273  MEMB      173             0.0000000000
     19979       173  SAPC      C39            -5.4682896906      -40.9964618585       -9.5002015488  MEMB      173             0.0000000000
     19980       173  SAPC      H9X            -4.4893828371      -40.9636207350       -8.9758124996  MEMB      173             0.0000000000
     19981       173  SAPC      H9Y            -5.5671003730      -42.0286314802       -9.8991783695  MEMB      173             0.0000000000
     19982       173  SAPC      C310           -6.6287069301      -40.9250921509       -8.4202227557  MEMB      173             0.0000000000
     19983       173  SAPC      H10X           -6.7201109017      -41.9081688721       -7.9107851969  MEMB      173             0.0000000000
     19984       173  SAPC      H10Y           -7.6199646899      -40.9318619214       -8.9219027194  MEMB      173             0.0000000000
     19985       173  SAPC      C311           -6.3913753055      -39.7514536841       -7.5164304339  MEMB      173             0.0000000000
     19986       173  SAPC      H11X           -6.4011166787      -38.8160481658       -8.1157992381  MEMB      173             0.0000000000
     19987       173  SAPC      H11Y           -5.3547277034      -39.9529068719       -7.1713229058  MEMB      173             0.0000000000
     19988       173  SAPC      C312           -7.4576796727      -39.5837067804       -6.4141216463  MEMB      173             0.0000000000
     19989       173  SAPC      H12X           -7.6380179568      -40.4539720363       -5.7474607857  MEMB      173             0.0000000000
     19990       173  SAPC      H12Y           -8.3542509078      -39.5182470966       -7.0669587679  MEMB      173             0.0000000000
     19991       173  SAPC      C313           -7.0707801441      -38.5330186747       -5.3623371886  MEMB      173             0.0000000000
     19992       173  SAPC      H13X           -7.0228769916      -37.5547893379       -5.8868309493  MEMB      173             0.0000000000
     19993       173  SAPC      H13Y           -6.0500973228      -38.7011798318       -4.9570600500  MEMB      173             0.0000000000
     19994       173  SAPC      C314           -8.0645328860      -38.4317747314       -4.2124208698  MEMB      173             0.0000000000
     19995       173  SAPC      H14X           -7.9299961412      -39.3737477280       -3.6389158979  MEMB      173             0.0000000000
     19996       173  SAPC      H14Y           -9.0750533379      -38.5414198676       -4.6609163357  MEMB      173             0.0000000000
     19997       173  SAPC      C315           -7.8504868783      -37.1244254186       -3.3070161611  MEMB      173             0.0000000000
     19998       173  SAPC      H15X           -6.8205611442      -37.1820635883       -2.8944001302  MEMB      173             0.0000000000
     19999       173  SAPC      H15Y           -8.4996676906      -37.1614333165       -2.4061747078  MEMB      173             0.0000000000
     20000       173  SAPC      C316           -8.0082837093      -35.7660497331       -4.0390625378  MEMB      173             0.0000000000
     20001       173  SAPC      H16X           -9.0588281877      -35.4686274340       -4.2445306417  MEMB      173             0.0000000000
     20002       173  SAPC      H16Y           -7.5413015296      -35.8032047891       -5.0464690125  MEMB      173             0.0000000000
     20003       173  SAPC      C317           -7.3030948628      -34.6498080149       -3.2744271626  MEMB      173             0.0000000000
     20004       173  SAPC      H17X           -6.9468999928      -33.8701083289       -3.9811900084  MEMB      173             0.0000000000
     20005       173  SAPC      H17Y           -6.3976557917      -35.1461276999       -2.8643435065  MEMB      173             0.0000000000
     20006       173  SAPC      C318           -8.1661574402      -34.0037064319       -2.0903485154  MEMB      173             0.0000000000
     20007       173  SAPC      H18X           -8.4027143332      -34.7903484944       -1.3423150694  MEMB      173             0.0000000000
     20008       173  SAPC      H18Y           -9.0929707043      -33.6143377469       -2.5633502445  MEMB      173             0.0000000000
     20009       173  SAPC      H18Z           -7.5659674169      -33.2180771812       -1.5835154924  MEMB      173             0.0000000000
     20010       174  SAPE      N             -30.1443617753       24.9529819019      -20.8429095155  MEMB      174             0.0000000000
     20011       174  SAPE      HN1           -31.1134112786       25.3273494098      -20.7940024813  MEMB      174             0.0000000000
     20012       174  SAPE      HN2           -29.7838845457       24.6735615210      -19.9082542161  MEMB      174             0.0000000000
     20013       174  SAPE      HN3           -29.5656481778       25.7713163163      -21.1204323816  MEMB      174             0.0000000000
     20014       174  SAPE      C12           -30.0652279694       23.6554417431      -21.6414930403  MEMB      174             0.0000000000
     20015       174  SAPE      H12A          -29.0119397699       23.3021499146      -21.6320148618  MEMB      174             0.0000000000
     20016       174  SAPE      H12B          -30.3736936329       23.9599900424      -22.6644399554  MEMB      174             0.0000000000
     20017       174  SAPE      C11           -31.0194545531       22.5644234746      -21.1168635179  MEMB      174             0.0000000000
     20018       174  SAPE      H11A          -31.0380585398       21.6500419278      -21.7476418182  MEMB      174             0.0000000000
     20019       174  SAPE      H11B          -32.0730283253       22.8861577797      -21.2610518619  MEMB      174             0.0000000000
     20020       174  SAPE      P             -30.5499487320       20.7744083942      -19.3015904303  MEMB      174             0.0000000000
     20021       174  SAPE      O13           -31.8830337576       20.1884925891      -19.2607738447  MEMB      174             0.0000000000
     20022       174  SAPE      O14           -29.5474357054       20.2539388165      -20.2107155924  MEMB      174             0.0000000000
     20023       174  SAPE      O12           -30.6950114164       22.3019381261      -19.7502018458  MEMB      174             0.0000000000
     20024       174  SAPE      O11           -29.9408460992       20.9078021800      -17.8754522078  MEMB      174             0.0000000000
     20025       174  SAPE      C1            -28.6946498292       21.5305607764      -17.6597336363  MEMB      174             0.0000000000
     20026       174  SAPE      HA            -28.0772718200       20.6587901667      -17.3544770525  MEMB      174             0.0000000000
     20027       174  SAPE      HB            -28.2442583775       22.0769354924      -18.5158545724  MEMB      174             0.0000000000
     20028       174  SAPE      C2            -28.7678771517       22.4343054379      -16.4184063743  MEMB      174             0.0000000000
     20029       174  SAPE      HS            -27.7335100417       22.5672483912      -16.0353506085  MEMB      174             0.0000000000
     20030       174  SAPE      O21           -29.5876807465       21.8789183653      -15.3721358159  MEMB      174             0.0000000000
     20031       174  SAPE      C21           -29.0022392516       20.8829255052      -14.6021531216  MEMB      174             0.0000000000
     20032       174  SAPE      O22           -27.8035689769       20.7618653595      -14.5321482694  MEMB      174             0.0000000000
     20033       174  SAPE      C22           -30.0883330947       20.0342690552      -13.9729128288  MEMB      174             0.0000000000
     20034       174  SAPE      H2R           -30.9676298313       20.7131984094      -13.9583095517  MEMB      174             0.0000000000
     20035       174  SAPE      H2S           -30.3932698367       19.2380164019      -14.6851741470  MEMB      174             0.0000000000
     20036       174  SAPE      C3            -29.2803105645       23.8406353099      -16.7013835879  MEMB      174             0.0000000000
     20037       174  SAPE      HX            -30.3472306556       23.9456319558      -16.9928937543  MEMB      174             0.0000000000
     20038       174  SAPE      HY            -28.6455799524       24.2542824353      -17.5139929397  MEMB      174             0.0000000000
     20039       174  SAPE      O31           -28.9834470927       24.6846043851      -15.5858666504  MEMB      174             0.0000000000
     20040       174  SAPE      C31           -29.9701270217       24.6534758854      -14.6285262347  MEMB      174             0.0000000000
     20041       174  SAPE      O32           -31.0407075542       24.1069522898      -14.7179296897  MEMB      174             0.0000000000
     20042       174  SAPE      C32           -29.4608236782       25.3669038658      -13.3679416247  MEMB      174             0.0000000000
     20043       174  SAPE      H2X           -30.2301742997       26.1575978121      -13.2367031613  MEMB      174             0.0000000000
     20044       174  SAPE      H2Y           -28.4628961136       25.8197929997      -13.5505698029  MEMB      174             0.0000000000
     20045       174  SAPE      C23           -29.6878746457       19.5348650118      -12.6361566979  MEMB      174             0.0000000000
     20046       174  SAPE      H3R           -28.7409362294       18.9924188552      -12.4278752108  MEMB      174             0.0000000000
     20047       174  SAPE      H3S           -30.5257925006       18.8251149189      -12.4674275847  MEMB      174             0.0000000000
     20048       174  SAPE      C24           -29.8742020852       20.5950068250      -11.5936434463  MEMB      174             0.0000000000
     20049       174  SAPE      H4R           -30.8614260096       21.0805999789      -11.7482696212  MEMB      174             0.0000000000
     20050       174  SAPE      H4S           -29.0705365578       21.3402514026      -11.7754491995  MEMB      174             0.0000000000
     20051       174  SAPE      C25           -29.7432986782       20.0784151752      -10.1598240245  MEMB      174             0.0000000000
     20052       174  SAPE      H5R           -28.8120587862       19.5219880936       -9.9776674916  MEMB      174             0.0000000000
     20053       174  SAPE      C26           -30.7020207031       20.1886946005       -9.2221569229  MEMB      174             0.0000000000
     20054       174  SAPE      H6R           -30.4993903531       19.5541351405       -8.3467852339  MEMB      174             0.0000000000
     20055       174  SAPE      C27           -32.0960643302       20.8253178491       -9.3912046275  MEMB      174             0.0000000000
     20056       174  SAPE      H7R           -32.6161241970       20.1832211693      -10.1338825766  MEMB      174             0.0000000000
     20057       174  SAPE      H7S           -32.0321467670       21.7667733797       -9.9776320821  MEMB      174             0.0000000000
     20058       174  SAPE      C28           -32.9975233092       20.8253827054       -8.1549639240  MEMB      174             0.0000000000
     20059       174  SAPE      H8R           -33.1115744723       19.8063427579       -7.7567812991  MEMB      174             0.0000000000
     20060       174  SAPE      C29           -33.7810861071       21.8013727296       -7.6434582014  MEMB      174             0.0000000000
     20061       174  SAPE      H9R           -34.4003641727       21.5491511518       -6.7700286857  MEMB      174             0.0000000000
     20062       174  SAPE      C210          -33.9572048392       23.1773862036       -8.1644963106  MEMB      174             0.0000000000
     20063       174  SAPE      H10R          -35.0075429262       23.3275755006       -8.4939728758  MEMB      174             0.0000000000
     20064       174  SAPE      H10S          -33.2797707999       23.2582482728       -9.0413457568  MEMB      174             0.0000000000
     20065       174  SAPE      C211          -33.5596656349       24.2559998176       -7.1966402920  MEMB      174             0.0000000000
     20066       174  SAPE      H11R          -34.3461029717       24.9973109934       -6.9917644645  MEMB      174             0.0000000000
     20067       174  SAPE      C212          -32.3570007543       24.5114474176       -6.6192169814  MEMB      174             0.0000000000
     20068       174  SAPE      H12R          -32.2670828813       25.2702750680       -5.8279556806  MEMB      174             0.0000000000
     20069       174  SAPE      C213          -31.1415191432       23.6815544821       -6.9091899442  MEMB      174             0.0000000000
     20070       174  SAPE      H13R          -30.1604456972       24.2029134580       -6.9099887444  MEMB      174             0.0000000000
     20071       174  SAPE      H13S          -31.1785675943       23.2935565767       -7.9495769369  MEMB      174             0.0000000000
     20072       174  SAPE      C214          -30.9787688645       22.5615028367       -5.8533240226  MEMB      174             0.0000000000
     20073       174  SAPE      H14R          -31.0484072773       21.6370876264       -6.4454448345  MEMB      174             0.0000000000
     20074       174  SAPE      C215          -30.7114118530       22.6131017102       -4.5157262184  MEMB      174             0.0000000000
     20075       174  SAPE      H15R          -30.7069862775       21.6832047956       -3.9281280400  MEMB      174             0.0000000000
     20076       174  SAPE      C216          -30.5650445637       23.9175273869       -3.7690169368  MEMB      174             0.0000000000
     20077       174  SAPE      H16R          -30.9840036027       24.7159569001       -4.4180975157  MEMB      174             0.0000000000
     20078       174  SAPE      H16S          -29.4752048527       24.1322494698       -3.7905732122  MEMB      174             0.0000000000
     20079       174  SAPE      C217          -31.1611326299       24.0600256982       -2.4478657406  MEMB      174             0.0000000000
     20080       174  SAPE      H17R          -30.9046476111       23.2116948708       -1.7778871575  MEMB      174             0.0000000000
     20081       174  SAPE      H17S          -32.2421241837       23.9113270117       -2.6568322349  MEMB      174             0.0000000000
     20082       174  SAPE      C218          -30.8321176381       25.4132408262       -1.7431552719  MEMB      174             0.0000000000
     20083       174  SAPE      H18R          -31.6295158994       25.3901071051       -0.9698872840  MEMB      174             0.0000000000
     20084       174  SAPE      H18S          -30.8837448572       26.2368245817       -2.4870406397  MEMB      174             0.0000000000
     20085       174  SAPE      C219          -29.4289987350       25.5042600162       -1.0676486456  MEMB      174             0.0000000000
     20086       174  SAPE      H19R          -28.9250821867       24.5449518386       -0.8224622527  MEMB      174             0.0000000000
     20087       174  SAPE      H19S          -29.6398522099       26.0719787752       -0.1362215686  MEMB      174             0.0000000000
     20088       174  SAPE      C220          -28.5486599893       26.3495999366       -1.8579410323  MEMB      174             0.0000000000
     20089       174  SAPE      H20R          -28.0140969290       25.7889413297       -2.6543231026  MEMB      174             0.0000000000
     20090       174  SAPE      H20S          -27.5938595898       26.4473067578       -1.2983609090  MEMB      174             0.0000000000
     20091       174  SAPE      H20T          -28.8105257291       27.3625875300       -2.2315758879  MEMB      174             0.0000000000
     20092       174  SAPE      C33           -29.3916836338       24.4949327530      -12.1767497247  MEMB      174             0.0000000000
     20093       174  SAPE      H3X           -28.9649545755       23.5060027622      -12.4492214376  MEMB      174             0.0000000000
     20094       174  SAPE      H3Y           -30.4479263725       24.3085689816      -11.8870241478  MEMB      174             0.0000000000
     20095       174  SAPE      C34           -28.4333469082       24.9667817861      -11.1440626365  MEMB      174             0.0000000000
     20096       174  SAPE      H4X           -28.6233242291       26.0064228910      -10.8014603630  MEMB      174             0.0000000000
     20097       174  SAPE      H4Y           -27.4534379366       24.9215566819      -11.6656504397  MEMB      174             0.0000000000
     20098       174  SAPE      C35           -28.0878626803       24.0010408435       -9.9565647046  MEMB      174             0.0000000000
     20099       174  SAPE      H5X           -27.8656637687       23.0251080931      -10.4387517104  MEMB      174             0.0000000000
     20100       174  SAPE      H5Y           -28.9785083139       23.9776795426       -9.2928438029  MEMB      174             0.0000000000
     20101       174  SAPE      C36           -26.8831065302       24.5826840770       -9.0799245991  MEMB      174             0.0000000000
     20102       174  SAPE      H6X           -27.0803113266       25.6534726112       -8.8589209546  MEMB      174             0.0000000000
     20103       174  SAPE      H6Y           -26.0187101058       24.4404869383       -9.7632400508  MEMB      174             0.0000000000
     20104       174  SAPE      C37           -26.6700435725       23.7593625942       -7.7894768203  MEMB      174             0.0000000000
     20105       174  SAPE      H7X           -27.4024499774       24.1496291565       -7.0508332748  MEMB      174             0.0000000000
     20106       174  SAPE      H7Y           -25.6952968996       24.0038892004       -7.3157713629  MEMB      174             0.0000000000
     20107       174  SAPE      C38           -26.7168051883       22.2017380547       -7.8691067781  MEMB      174             0.0000000000
     20108       174  SAPE      H8X           -26.2466627072       21.9793920534       -8.8508645142  MEMB      174             0.0000000000
     20109       174  SAPE      H8Y           -27.7546854262       21.8105760520       -7.9332766266  MEMB      174             0.0000000000
     20110       174  SAPE      C39           -26.0766264363       21.4968616675       -6.6988982132  MEMB      174             0.0000000000
     20111       174  SAPE      H9X           -25.0660129000       21.9583084407       -6.7058535178  MEMB      174             0.0000000000
     20112       174  SAPE      H9Y           -25.9460484510       20.4209569299       -6.9432321029  MEMB      174             0.0000000000
     20113       174  SAPE      C310          -26.8853401137       21.7074147032       -5.3892176460  MEMB      174             0.0000000000
     20114       174  SAPE      H10X          -27.9785611150       21.7466545264       -5.5832521735  MEMB      174             0.0000000000
     20115       174  SAPE      H10Y          -26.5027049539       22.5689217694       -4.8012412806  MEMB      174             0.0000000000
     20116       174  SAPE      C311          -26.7627693939       20.4382420161       -4.4012951363  MEMB      174             0.0000000000
     20117       174  SAPE      H11X          -25.7143823022       20.4585371538       -4.0341525993  MEMB      174             0.0000000000
     20118       174  SAPE      H11Y          -26.9438893447       19.5126302482       -4.9884571080  MEMB      174             0.0000000000
     20119       174  SAPE      C312          -27.7445787670       20.5396522520       -3.2718645874  MEMB      174             0.0000000000
     20120       174  SAPE      H12X          -28.7568623353       20.2843526027       -3.6518984112  MEMB      174             0.0000000000
     20121       174  SAPE      H12Y          -27.7302744088       21.5022587633       -2.7173339297  MEMB      174             0.0000000000
     20122       174  SAPE      C313          -27.4912030877       19.3874215038       -2.2446257166  MEMB      174             0.0000000000
     20123       174  SAPE      H13X          -26.5104815913       19.5209616212       -1.7399752985  MEMB      174             0.0000000000
     20124       174  SAPE      H13Y          -27.6561954482       18.5070883406       -2.9019799118  MEMB      174             0.0000000000
     20125       174  SAPE      C314          -28.6046818369       19.2313267532       -1.1404375245  MEMB      174             0.0000000000
     20126       174  SAPE      H14X          -28.1035307267       18.7775632293       -0.2588108811  MEMB      174             0.0000000000
     20127       174  SAPE      H14Y          -29.3869631254       18.4824710934       -1.3885772428  MEMB      174             0.0000000000
     20128       174  SAPE      C315          -29.0928327939       20.5811430147       -0.6167995370  MEMB      174             0.0000000000
     20129       174  SAPE      H15X          -29.6575751233       21.2271233057       -1.3225585439  MEMB      174             0.0000000000
     20130       174  SAPE      H15Y          -28.3119383043       21.2367756866       -0.1755858652  MEMB      174             0.0000000000
     20131       174  SAPE      C316          -30.1894981293       20.4549640018        0.5424042854  MEMB      174             0.0000000000
     20132       174  SAPE      H16X          -29.7536141177       19.8173835995        1.3410400512  MEMB      174             0.0000000000
     20133       174  SAPE      H16Y          -31.0372855471       19.8905162824        0.0985837367  MEMB      174             0.0000000000
     20134       174  SAPE      C317          -30.5677659498       21.8256748739        1.2399507958  MEMB      174             0.0000000000
     20135       174  SAPE      H17X          -31.1554697322       22.4214986717        0.5092528437  MEMB      174             0.0000000000
     20136       174  SAPE      H17Y          -29.6539806296       22.4057071695        1.4907103365  MEMB      174             0.0000000000
     20137       174  SAPE      C318          -31.4170422900       21.5534317264        2.4167622607  MEMB      174             0.0000000000
     20138       174  SAPE      H18X          -31.9723453118       22.4720172179        2.7033993294  MEMB      174             0.0000000000
     20139       174  SAPE      H18Y          -30.6505429437       21.3353511893        3.1908677582  MEMB      174             0.0000000000
     20140       174  SAPE      H18Z          -32.1568062467       20.7925853588        2.0878491978  MEMB      174             0.0000000000
     20141       175  OSM       N             -25.4144130765      -30.0537979396      -22.4983669493  MEMB      175             0.0000000000
     20142       175  OSM       C15           -26.0219824739      -31.0031144458      -23.4920799210  MEMB      175             0.0000000000
     20143       175  OSM       H15A          -25.3166188079      -31.7570514545      -23.8090044060  MEMB      175             0.0000000000
     20144       175  OSM       H15B          -26.1292245798      -30.3523231859      -24.3472815052  MEMB      175             0.0000000000
     20145       175  OSM       H15C          -26.9475977044      -31.4168203672      -23.1199457779  MEMB      175             0.0000000000
     20146       175  OSM       C14           -24.0917678581      -29.6323271478      -23.1768505422  MEMB      175             0.0000000000
     20147       175  OSM       H14A          -24.3513680977      -29.3008452220      -24.1713995204  MEMB      175             0.0000000000
     20148       175  OSM       H14B          -23.4735280670      -30.5087364236      -23.3036821204  MEMB      175             0.0000000000
     20149       175  OSM       H14C          -23.6082272386      -28.8510826217      -22.6091840263  MEMB      175             0.0000000000
     20150       175  OSM       C13           -26.2293568747      -28.8534128150      -22.3186106154  MEMB      175             0.0000000000
     20151       175  OSM       H13A          -26.9895696943      -28.9956380280      -21.5647880559  MEMB      175             0.0000000000
     20152       175  OSM       H13B          -26.6368312525      -28.4768247544      -23.2451881350  MEMB      175             0.0000000000
     20153       175  OSM       H13C          -25.5727303616      -28.0515391042      -22.0148998997  MEMB      175             0.0000000000
     20154       175  OSM       C12           -25.0135313895      -30.7253473281      -21.2487525887  MEMB      175             0.0000000000
     20155       175  OSM       H12A          -24.4007663584      -31.5917013413      -21.4496249224  MEMB      175             0.0000000000
     20156       175  OSM       H12B          -25.9796326149      -30.9825230050      -20.8402074577  MEMB      175             0.0000000000
     20157       175  OSM       C11           -24.3596739790      -29.8680724819      -20.0805006770  MEMB      175             0.0000000000
     20158       175  OSM       H11A          -23.7733306374      -30.4499124188      -19.3375438885  MEMB      175             0.0000000000
     20159       175  OSM       H11B          -25.2123494362      -29.3167883813      -19.6295556294  MEMB      175             0.0000000000
     20160       175  OSM       P             -22.5149468454      -27.9214432265      -19.6670000561  MEMB      175             0.0000000000
     20161       175  OSM       O13           -21.2249819611      -27.7899758117      -20.3064221239  MEMB      175             0.0000000000
     20162       175  OSM       O14           -23.1630289102      -26.6659660312      -19.3046588369  MEMB      175             0.0000000000
     20163       175  OSM       O11           -22.3043674346      -28.8436561246      -18.3857978600  MEMB      175             0.0000000000
     20164       175  OSM       O12           -23.4878148028      -28.8168638727      -20.5209598298  MEMB      175             0.0000000000
     20165       175  OSM       C1S           -21.7819620866      -28.2618963891      -17.2015599880  MEMB      175             0.0000000000
     20166       175  OSM       H1S           -20.9729613017      -27.5665649225      -17.5119675506  MEMB      175             0.0000000000
     20167       175  OSM       H1T           -21.0870971491      -28.9881823176      -16.7282814884  MEMB      175             0.0000000000
     20168       175  OSM       NF            -21.9942228843      -27.4637113278      -15.0038250128  MEMB      175             0.0000000000
     20169       175  OSM       HNF           -22.1604929814      -28.1596108334      -14.3094999696  MEMB      175             0.0000000000
     20170       175  OSM       C2S           -22.7605165545      -27.6679286180      -16.2314803296  MEMB      175             0.0000000000
     20171       175  OSM       H2S           -23.1303113195      -26.6989118627      -16.6297004652  MEMB      175             0.0000000000
     20172       175  OSM       C3S           -23.9893739985      -28.5814961366      -15.9152165054  MEMB      175             0.0000000000
     20173       175  OSM       H3S           -23.6164893456      -29.5881249652      -15.6289010964  MEMB      175             0.0000000000
     20174       175  OSM       O3            -24.7590105013      -28.7922879605      -17.0833035051  MEMB      175             0.0000000000
     20175       175  OSM       HO3           -24.2452642587      -28.5295630921      -17.8505325355  MEMB      175             0.0000000000
     20176       175  OSM       C4S           -24.7544506810      -27.9438257905      -14.7774017591  MEMB      175             0.0000000000
     20177       175  OSM       H4S           -24.5787042934      -28.4246736686      -13.8038010307  MEMB      175             0.0000000000
     20178       175  OSM       C5S           -25.6875352864      -26.9787740716      -14.9269927635  MEMB      175             0.0000000000
     20179       175  OSM       H5S           -25.9290122030      -26.5950911249      -15.9292286035  MEMB      175             0.0000000000
     20180       175  OSM       C6S           -26.4923968213      -26.3843835149      -13.7721331805  MEMB      175             0.0000000000
     20181       175  OSM       H6S           -27.5191324090      -26.5453923322      -14.1648306716  MEMB      175             0.0000000000
     20182       175  OSM       H6T           -26.5049397773      -25.2735541128      -13.7572476084  MEMB      175             0.0000000000
     20183       175  OSM       C7S           -26.2966467606      -26.6885604371      -12.2423614126  MEMB      175             0.0000000000
     20184       175  OSM       H7S           -26.2527982562      -27.7982534752      -12.2110615796  MEMB      175             0.0000000000
     20185       175  OSM       H7T           -27.2724200892      -26.3826640559      -11.8080635342  MEMB      175             0.0000000000
     20186       175  OSM       C8S           -25.0753853014      -26.0632396509      -11.6704630237  MEMB      175             0.0000000000
     20187       175  OSM       H8S           -25.0434816083      -24.9897029344      -11.9547552316  MEMB      175             0.0000000000
     20188       175  OSM       H8T           -24.2379618995      -26.6052042507      -12.1596644137  MEMB      175             0.0000000000
     20189       175  OSM       C9S           -24.9722104456      -26.3227741443      -10.1173949959  MEMB      175             0.0000000000
     20190       175  OSM       H9S           -24.9422051199      -27.3898714960       -9.8096224918  MEMB      175             0.0000000000
     20191       175  OSM       H9T           -25.9080386357      -25.8731328403       -9.7219585855  MEMB      175             0.0000000000
     20192       175  OSM       C10S          -23.6785913139      -25.6657269815       -9.5454342436  MEMB      175             0.0000000000
     20193       175  OSM       H10S          -23.2763461628      -25.0457978030      -10.3750170730  MEMB      175             0.0000000000
     20194       175  OSM       H10T          -23.0208556174      -26.5157810459       -9.2641641049  MEMB      175             0.0000000000
     20195       175  OSM       C11S          -23.9596220860      -24.7683559048       -8.3212864022  MEMB      175             0.0000000000
     20196       175  OSM       H11S          -24.5829538538      -23.9180139056       -8.6715675813  MEMB      175             0.0000000000
     20197       175  OSM       H11T          -23.0196439082      -24.1846171183       -8.2212304973  MEMB      175             0.0000000000
     20198       175  OSM       C12S          -24.2554075457      -25.4374299892       -7.0270012351  MEMB      175             0.0000000000
     20199       175  OSM       H12S          -25.1444437592      -26.0947180018       -7.1361248481  MEMB      175             0.0000000000
     20200       175  OSM       H12T          -24.5403054579      -24.6983783239       -6.2479274336  MEMB      175             0.0000000000
     20201       175  OSM       C13S          -22.9828800596      -26.1276320027       -6.4933514709  MEMB      175             0.0000000000
     20202       175  OSM       H13S          -22.8863682933      -26.0325648626       -5.3906425849  MEMB      175             0.0000000000
     20203       175  OSM       H13T          -22.1261024748      -25.6796859656       -7.0407073755  MEMB      175             0.0000000000
     20204       175  OSM       C14S          -23.1263949060      -27.6779676151       -6.5036166659  MEMB      175             0.0000000000
     20205       175  OSM       H14S          -23.1610993857      -28.0540601935       -7.5484474428  MEMB      175             0.0000000000
     20206       175  OSM       H14T          -24.0931220086      -27.9524785660       -6.0299046056  MEMB      175             0.0000000000
     20207       175  OSM       C15S          -21.9527873476      -28.3161436314       -5.7050123675  MEMB      175             0.0000000000
     20208       175  OSM       H15S          -21.0043415130      -28.2554163931       -6.2804114871  MEMB      175             0.0000000000
     20209       175  OSM       H15T          -22.1792983699      -29.4034051230       -5.6754107783  MEMB      175             0.0000000000
     20210       175  OSM       C16S          -21.8569361698      -27.9542238543       -4.2200159728  MEMB      175             0.0000000000
     20211       175  OSM       H16S          -22.8641981782      -28.0685234477       -3.7653955367  MEMB      175             0.0000000000
     20212       175  OSM       H16T          -21.5007193815      -26.9037967990       -4.1565046060  MEMB      175             0.0000000000
     20213       175  OSM       C17S          -20.7481823031      -28.7876825843       -3.5583398789  MEMB      175             0.0000000000
     20214       175  OSM       H17S          -19.8111264151      -28.2287964729       -3.3488317723  MEMB      175             0.0000000000
     20215       175  OSM       H17T          -20.4406320784      -29.6397627287       -4.2015283707  MEMB      175             0.0000000000
     20216       175  OSM       C18S          -21.1745169994      -29.3136595996       -2.1716581841  MEMB      175             0.0000000000
     20217       175  OSM       H18S          -21.9174983001      -30.0953147738       -2.4387065513  MEMB      175             0.0000000000
     20218       175  OSM       H18T          -21.7137643460      -28.5254679837       -1.6039552210  MEMB      175             0.0000000000
     20219       175  OSM       H18U          -20.4148038639      -29.7996188113       -1.5228129356  MEMB      175             0.0000000000
     20220       175  OSM       C1F           -21.0533954742      -26.4698378859      -14.8753229755  MEMB      175             0.0000000000
     20221       175  OSM       OF            -20.9966740519      -25.4024285627      -15.4741224984  MEMB      175             0.0000000000
     20222       175  OSM       C2F           -20.1058935768      -26.7695985309      -13.7717794050  MEMB      175             0.0000000000
     20223       175  OSM       H2F           -19.2494995631      -26.0712092191      -13.8865105701  MEMB      175             0.0000000000
     20224       175  OSM       H2G           -19.8043840571      -27.8339845645      -13.8742242368  MEMB      175             0.0000000000
     20225       175  OSM       C3F           -20.9381358218      -26.6572295574      -12.4541991352  MEMB      175             0.0000000000
     20226       175  OSM       H3F           -21.9095610462      -27.1822814327      -12.5765678553  MEMB      175             0.0000000000
     20227       175  OSM       H3G           -21.1551358809      -25.5676276890      -12.4542437183  MEMB      175             0.0000000000
     20228       175  OSM       C4F           -20.2716106800      -27.1106742049      -11.1253473973  MEMB      175             0.0000000000
     20229       175  OSM       H4F           -20.8353068894      -26.8959179768      -10.1923694094  MEMB      175             0.0000000000
     20230       175  OSM       H4G           -19.2120036370      -26.7954293398      -11.0150077130  MEMB      175             0.0000000000
     20231       175  OSM       C5F           -20.1117882731      -28.6977774656      -11.0244141172  MEMB      175             0.0000000000
     20232       175  OSM       H5F           -19.6577636194      -28.8459156468      -10.0213006627  MEMB      175             0.0000000000
     20233       175  OSM       H5G           -19.3292438385      -29.0531992320      -11.7284171304  MEMB      175             0.0000000000
     20234       175  OSM       C6F           -21.4031650725      -29.5439596494      -11.2198303218  MEMB      175             0.0000000000
     20235       175  OSM       H6F           -21.4177558262      -29.8949813474      -12.2738185918  MEMB      175             0.0000000000
     20236       175  OSM       H6G           -22.2810564832      -28.8864942166      -11.0427243450  MEMB      175             0.0000000000
     20237       175  OSM       C7F           -21.5356324301      -30.8244426109      -10.3229091542  MEMB      175             0.0000000000
     20238       175  OSM       H7F           -20.5300929526      -31.2967308918      -10.3353486760  MEMB      175             0.0000000000
     20239       175  OSM       H7G           -22.2322909819      -31.5175874273      -10.8411157233  MEMB      175             0.0000000000
     20240       175  OSM       C8F           -22.0624543952      -30.6588993348       -8.8864032357  MEMB      175             0.0000000000
     20241       175  OSM       H8F           -21.3708052328      -30.0994454638       -8.2208554359  MEMB      175             0.0000000000
     20242       175  OSM       H8G           -22.0087432672      -31.7295612376       -8.5946504997  MEMB      175             0.0000000000
     20243       175  OSM       C9F           -23.4320706302      -30.1256610496       -8.8372289239  MEMB      175             0.0000000000
     20244       175  OSM       H9F           -23.4919918310      -29.0900900370       -9.2032919604  MEMB      175             0.0000000000
     20245       175  OSM       C10F          -24.5977975332      -30.6053719558       -8.3655585056  MEMB      175             0.0000000000
     20246       175  OSM       H10F          -25.5314047438      -30.0364483834       -8.4868166375  MEMB      175             0.0000000000
     20247       175  OSM       C11F          -24.7522156009      -32.0084648371       -7.7661126989  MEMB      175             0.0000000000
     20248       175  OSM       H11F          -23.8291602959      -32.6163161926       -7.8792797106  MEMB      175             0.0000000000
     20249       175  OSM       H11G          -25.5719979786      -32.4341467215       -8.3834234634  MEMB      175             0.0000000000
     20250       175  OSM       C12F          -25.2554455008      -32.1011463661       -6.3338386645  MEMB      175             0.0000000000
     20251       175  OSM       H12F          -25.4221398465      -33.1527570445       -6.0165868594  MEMB      175             0.0000000000
     20252       175  OSM       H12G          -26.1433827066      -31.4345866446       -6.2940046871  MEMB      175             0.0000000000
     20253       175  OSM       C13F          -24.1075841412      -31.5131162257       -5.4034081279  MEMB      175             0.0000000000
     20254       175  OSM       H13F          -24.1427728944      -30.4027119141       -5.4126291528  MEMB      175             0.0000000000
     20255       175  OSM       H13G          -23.1513207020      -31.8063843217       -5.8870146188  MEMB      175             0.0000000000
     20256       175  OSM       C14F          -24.1467016332      -32.1533657528       -4.0388344668  MEMB      175             0.0000000000
     20257       175  OSM       H14F          -23.2654314774      -31.9250646199       -3.4019966533  MEMB      175             0.0000000000
     20258       175  OSM       H14G          -24.1420731354      -33.2270215434       -4.3244283926  MEMB      175             0.0000000000
     20259       175  OSM       C15F          -25.4107123641      -31.8652825724       -3.1443337540  MEMB      175             0.0000000000
     20260       175  OSM       H15F          -25.3016411361      -32.3096060459       -2.1319119928  MEMB      175             0.0000000000
     20261       175  OSM       H15G          -26.2602264014      -32.3752752557       -3.6468816255  MEMB      175             0.0000000000
     20262       175  OSM       C16F          -25.5805059651      -30.3187756598       -2.9436078982  MEMB      175             0.0000000000
     20263       175  OSM       H16F          -25.6792005316      -29.8598107308       -3.9505489185  MEMB      175             0.0000000000
     20264       175  OSM       H16G          -24.6319311204      -29.8957093066       -2.5492202442  MEMB      175             0.0000000000
     20265       175  OSM       C17F          -26.7562184391      -29.9033446602       -2.0413755058  MEMB      175             0.0000000000
     20266       175  OSM       H17F          -27.0534034912      -30.7895235291       -1.4408024222  MEMB      175             0.0000000000
     20267       175  OSM       H17G          -27.6799135978      -29.6180036021       -2.5888132740  MEMB      175             0.0000000000
     20268       175  OSM       C18F          -26.5050478553      -28.6688218369       -1.1241878994  MEMB      175             0.0000000000
     20269       175  OSM       H18F          -25.6984010576      -28.8553480323       -0.3833444597  MEMB      175             0.0000000000
     20270       175  OSM       H18G          -27.4206804920      -28.2992518714       -0.6149190780  MEMB      175             0.0000000000
     20271       175  OSM       H18H          -26.2264975893      -27.8328849278       -1.8009005125  MEMB      175             0.0000000000
     20272       176  SAPE      N             -27.5869272867      -21.8896943718      -20.3698518017  MEMB      176             0.0000000000
     20273       176  SAPE      HN1           -26.9527410643      -21.2689100346      -20.9121013726  MEMB      176             0.0000000000
     20274       176  SAPE      HN2           -28.4741345273      -21.3476727976      -20.3438550463  MEMB      176             0.0000000000
     20275       176  SAPE      HN3           -27.2758551152      -22.2719677136      -19.4540455164  MEMB      176             0.0000000000
     20276       176  SAPE      C12           -27.9399176820      -23.0890485208      -21.1746306217  MEMB      176             0.0000000000
     20277       176  SAPE      H12A          -27.4339077716      -23.8907661264      -20.5953865601  MEMB      176             0.0000000000
     20278       176  SAPE      H12B          -27.5077002371      -22.9556204095      -22.1893749030  MEMB      176             0.0000000000
     20279       176  SAPE      C11           -29.5177109494      -23.3650973429      -21.1614681573  MEMB      176             0.0000000000
     20280       176  SAPE      H11A          -29.8202008651      -24.0647667690      -21.9697277176  MEMB      176             0.0000000000
     20281       176  SAPE      H11B          -30.0490300583      -22.4050194070      -21.3354551881  MEMB      176             0.0000000000
     20282       176  SAPE      P             -30.2304520508      -25.1641568652      -19.4885489471  MEMB      176             0.0000000000
     20283       176  SAPE      O13           -31.2250175023      -25.3593421647      -18.4446765557  MEMB      176             0.0000000000
     20284       176  SAPE      O14           -30.3032840349      -25.9544597567      -20.7422734427  MEMB      176             0.0000000000
     20285       176  SAPE      O12           -30.0286280701      -23.6546944830      -19.8457891261  MEMB      176             0.0000000000
     20286       176  SAPE      O11           -28.8902768336      -25.4606313067      -18.7727613754  MEMB      176             0.0000000000
     20287       176  SAPE      C1            -28.3735394159      -26.8124426178      -18.8988059667  MEMB      176             0.0000000000
     20288       176  SAPE      HA            -29.1701525898      -27.5863951931      -18.9257536884  MEMB      176             0.0000000000
     20289       176  SAPE      HB            -27.8470702234      -26.9724543226      -19.8639729288  MEMB      176             0.0000000000
     20290       176  SAPE      C2            -27.3193627024      -27.1566820414      -17.8297174058  MEMB      176             0.0000000000
     20291       176  SAPE      HS            -27.0179739355      -28.2246215747      -17.8844064843  MEMB      176             0.0000000000
     20292       176  SAPE      O21           -27.7754326293      -26.8423389169      -16.5140140973  MEMB      176             0.0000000000
     20293       176  SAPE      C21           -28.6476081912      -27.7361330971      -16.0148183737  MEMB      176             0.0000000000
     20294       176  SAPE      O22           -29.0293492397      -28.6416429600      -16.7152325504  MEMB      176             0.0000000000
     20295       176  SAPE      C22           -29.2050226688      -27.3246473147      -14.5882468425  MEMB      176             0.0000000000
     20296       176  SAPE      H2R           -28.4655529915      -27.5421225015      -13.7881152906  MEMB      176             0.0000000000
     20297       176  SAPE      H2S           -29.2520231716      -26.2170228209      -14.5155835304  MEMB      176             0.0000000000
     20298       176  SAPE      C3            -25.9560508886      -26.4090853646      -18.1855312477  MEMB      176             0.0000000000
     20299       176  SAPE      HX            -25.5883530917      -26.5412433527      -19.2255570685  MEMB      176             0.0000000000
     20300       176  SAPE      HY            -25.1983717545      -26.8039004061      -17.4753450361  MEMB      176             0.0000000000
     20301       176  SAPE      O31           -25.9955402854      -24.9678230119      -18.1441088942  MEMB      176             0.0000000000
     20302       176  SAPE      C31           -25.9041048835      -24.4238035719      -16.9554513392  MEMB      176             0.0000000000
     20303       176  SAPE      O32           -25.3984356524      -24.9017713113      -15.9993733166  MEMB      176             0.0000000000
     20304       176  SAPE      C32           -26.5624977241      -23.1119224599      -17.0023381454  MEMB      176             0.0000000000
     20305       176  SAPE      H2X           -26.7339280553      -22.6614605273      -18.0033459349  MEMB      176             0.0000000000
     20306       176  SAPE      H2Y           -25.9962030685      -22.4348158123      -16.3276841877  MEMB      176             0.0000000000
     20307       176  SAPE      C23           -30.5535349369      -27.9873306459      -14.2016974844  MEMB      176             0.0000000000
     20308       176  SAPE      H3R           -30.2212416447      -29.0253061837      -14.4173570838  MEMB      176             0.0000000000
     20309       176  SAPE      H3S           -31.3089020267      -27.6887973679      -14.9597339209  MEMB      176             0.0000000000
     20310       176  SAPE      C24           -31.0165894500      -27.7069955878      -12.7801770817  MEMB      176             0.0000000000
     20311       176  SAPE      H4R           -32.0227862066      -28.1559721368      -12.6376662830  MEMB      176             0.0000000000
     20312       176  SAPE      H4S           -31.0800569385      -26.5978130019      -12.7775657757  MEMB      176             0.0000000000
     20313       176  SAPE      C25           -30.0389374721      -27.9443586488      -11.6596172111  MEMB      176             0.0000000000
     20314       176  SAPE      H5R           -29.0122564020      -27.5925105235      -11.8388621002  MEMB      176             0.0000000000
     20315       176  SAPE      C26           -30.3539641579      -28.4393102816      -10.4782762782  MEMB      176             0.0000000000
     20316       176  SAPE      H6R           -29.4546944008      -28.4795493040       -9.8460622129  MEMB      176             0.0000000000
     20317       176  SAPE      C27           -31.6918825139      -28.9272844398       -9.9680714627  MEMB      176             0.0000000000
     20318       176  SAPE      H7R           -31.6814524815      -30.0381128843       -9.9515715261  MEMB      176             0.0000000000
     20319       176  SAPE      H7S           -32.5566436956      -28.6943095193      -10.6255141750  MEMB      176             0.0000000000
     20320       176  SAPE      C28           -32.0724322294      -28.4770323666       -8.5395456822  MEMB      176             0.0000000000
     20321       176  SAPE      H8R           -32.8817976328      -27.7326232637       -8.5675276866  MEMB      176             0.0000000000
     20322       176  SAPE      C29           -31.5992006783      -29.0870478810       -7.3911131171  MEMB      176             0.0000000000
     20323       176  SAPE      H9R           -31.8715784059      -28.6110533475       -6.4375722234  MEMB      176             0.0000000000
     20324       176  SAPE      C210          -30.6706363145      -30.2037583355       -7.2471232538  MEMB      176             0.0000000000
     20325       176  SAPE      H10R          -31.0240202541      -31.0573052131       -7.8642936902  MEMB      176             0.0000000000
     20326       176  SAPE      H10S          -30.8271822183      -30.5748046053       -6.2116821822  MEMB      176             0.0000000000
     20327       176  SAPE      C211          -29.1661634139      -29.8839595973       -7.4292168939  MEMB      176             0.0000000000
     20328       176  SAPE      H11R          -28.7270512680      -30.2178032555       -8.3809146431  MEMB      176             0.0000000000
     20329       176  SAPE      C212          -28.3422112151      -29.3797955014       -6.4890204309  MEMB      176             0.0000000000
     20330       176  SAPE      H12R          -27.3072437060      -29.2137707842       -6.8226043558  MEMB      176             0.0000000000
     20331       176  SAPE      C213          -28.6750517593      -29.0132725885       -5.0455359342  MEMB      176             0.0000000000
     20332       176  SAPE      H13R          -29.7455746802      -28.7588280796       -4.8920444950  MEMB      176             0.0000000000
     20333       176  SAPE      H13S          -28.2139481667      -28.0029794962       -5.0137184651  MEMB      176             0.0000000000
     20334       176  SAPE      C214          -28.3460471395      -30.0135894233       -3.9720802281  MEMB      176             0.0000000000
     20335       176  SAPE      H14R          -29.1056601304      -29.9664889335       -3.1778708632  MEMB      176             0.0000000000
     20336       176  SAPE      C215          -27.2966356372      -30.7724836338       -3.7243447343  MEMB      176             0.0000000000
     20337       176  SAPE      H15R          -27.3566485642      -31.3851994194       -2.8127653134  MEMB      176             0.0000000000
     20338       176  SAPE      C216          -26.0214447314      -30.8482470105       -4.5159397215  MEMB      176             0.0000000000
     20339       176  SAPE      H16R          -26.1497901411      -30.1645792996       -5.3822237757  MEMB      176             0.0000000000
     20340       176  SAPE      H16S          -25.9367412479      -31.8466876612       -4.9957967449  MEMB      176             0.0000000000
     20341       176  SAPE      C217          -24.7851783069      -30.3470650790       -3.6614331787  MEMB      176             0.0000000000
     20342       176  SAPE      H17R          -23.9422301620      -30.2138832261       -4.3727860847  MEMB      176             0.0000000000
     20343       176  SAPE      H17S          -24.5575282883      -31.1629479809       -2.9425249081  MEMB      176             0.0000000000
     20344       176  SAPE      C218          -24.9490363592      -28.9839576349       -2.9879865771  MEMB      176             0.0000000000
     20345       176  SAPE      H18R          -24.3588710124      -29.0792090581       -2.0515283346  MEMB      176             0.0000000000
     20346       176  SAPE      H18S          -25.9827722751      -28.9365380936       -2.5836822554  MEMB      176             0.0000000000
     20347       176  SAPE      C219          -24.6388141202      -27.7024483257       -3.7381777346  MEMB      176             0.0000000000
     20348       176  SAPE      H19R          -25.1876714393      -27.7495281274       -4.7029896146  MEMB      176             0.0000000000
     20349       176  SAPE      H19S          -23.5510367843      -27.6961227303       -3.9640585653  MEMB      176             0.0000000000
     20350       176  SAPE      C220          -25.0434095502      -26.4377111110       -3.0101224972  MEMB      176             0.0000000000
     20351       176  SAPE      H20R          -26.1492581957      -26.4246790530       -2.9040556373  MEMB      176             0.0000000000
     20352       176  SAPE      H20S          -24.8364374294      -25.5666771853       -3.6679852711  MEMB      176             0.0000000000
     20353       176  SAPE      H20T          -24.4988659281      -26.3011168968       -2.0514060420  MEMB      176             0.0000000000
     20354       176  SAPE      C33           -27.8484488035      -23.2573600515      -16.1714713450  MEMB      176             0.0000000000
     20355       176  SAPE      H3X           -27.5097807127      -23.5675599328      -15.1598383458  MEMB      176             0.0000000000
     20356       176  SAPE      H3Y           -28.3634209505      -24.1817477339      -16.5100450102  MEMB      176             0.0000000000
     20357       176  SAPE      C34           -28.6568343334      -21.9695999079      -16.2088950833  MEMB      176             0.0000000000
     20358       176  SAPE      H4X           -28.6414154619      -21.5726294425      -17.2464390537  MEMB      176             0.0000000000
     20359       176  SAPE      H4Y           -28.2015125427      -21.2233017439      -15.5232988011  MEMB      176             0.0000000000
     20360       176  SAPE      C35           -30.1917652883      -22.2435984136      -15.9738178556  MEMB      176             0.0000000000
     20361       176  SAPE      H5X           -30.5522515187      -22.8725418899      -16.8157210555  MEMB      176             0.0000000000
     20362       176  SAPE      H5Y           -30.6936786225      -21.2536932086      -15.9239002739  MEMB      176             0.0000000000
     20363       176  SAPE      C36           -30.5545406816      -23.0005215906      -14.6193579843  MEMB      176             0.0000000000
     20364       176  SAPE      H6X           -30.0590250325      -22.4166740576      -13.8144312993  MEMB      176             0.0000000000
     20365       176  SAPE      H6Y           -30.0965668569      -24.0125076239      -14.5977911244  MEMB      176             0.0000000000
     20366       176  SAPE      C37           -32.0543639161      -23.1289895350      -14.5251477010  MEMB      176             0.0000000000
     20367       176  SAPE      H7X           -32.4536076052      -23.4668536109      -15.5053379992  MEMB      176             0.0000000000
     20368       176  SAPE      H7Y           -32.3856500795      -22.0704410785      -14.4615416129  MEMB      176             0.0000000000
     20369       176  SAPE      C38           -32.5878775856      -24.1053061328      -13.3647173246  MEMB      176             0.0000000000
     20370       176  SAPE      H8X           -32.3458194515      -25.1619123515      -13.6082581545  MEMB      176             0.0000000000
     20371       176  SAPE      H8Y           -33.6907486438      -23.9839754121      -13.3074863408  MEMB      176             0.0000000000
     20372       176  SAPE      C39           -31.9191959154      -23.7497240183      -12.0360477358  MEMB      176             0.0000000000
     20373       176  SAPE      H9X           -32.0182692339      -22.6458840519      -11.9583119014  MEMB      176             0.0000000000
     20374       176  SAPE      H9Y           -30.8575535211      -24.0718550431      -12.0949349517  MEMB      176             0.0000000000
     20375       176  SAPE      C310          -32.4812999266      -24.4899610131      -10.8992120675  MEMB      176             0.0000000000
     20376       176  SAPE      H10X          -32.0462606523      -25.5113642059      -10.8568182849  MEMB      176             0.0000000000
     20377       176  SAPE      H10Y          -33.5892179896      -24.4146112363      -10.8651362128  MEMB      176             0.0000000000
     20378       176  SAPE      C311          -32.0367522328      -23.9574700189       -9.4781260405  MEMB      176             0.0000000000
     20379       176  SAPE      H11X          -32.6391669951      -24.5761753133       -8.7791113463  MEMB      176             0.0000000000
     20380       176  SAPE      H11Y          -32.3966482919      -22.9063809472       -9.4808091782  MEMB      176             0.0000000000
     20381       176  SAPE      C312          -30.5748830054      -23.8485605805       -9.1422064221  MEMB      176             0.0000000000
     20382       176  SAPE      H12X          -30.3541192558      -23.1066181351       -8.3452708418  MEMB      176             0.0000000000
     20383       176  SAPE      H12Y          -30.0089896060      -23.4872975889      -10.0274037687  MEMB      176             0.0000000000
     20384       176  SAPE      C313          -30.0124052639      -25.1117924504       -8.6812341233  MEMB      176             0.0000000000
     20385       176  SAPE      H13X          -28.9043242806      -25.0669053779       -8.6144305162  MEMB      176             0.0000000000
     20386       176  SAPE      H13Y          -30.2692937529      -25.8839447872       -9.4376142114  MEMB      176             0.0000000000
     20387       176  SAPE      C314          -30.5178826926      -25.4892084548       -7.2687989953  MEMB      176             0.0000000000
     20388       176  SAPE      H14X          -30.0270632918      -26.4402874108       -6.9706935246  MEMB      176             0.0000000000
     20389       176  SAPE      H14Y          -31.6158420942      -25.6588782614       -7.2645182884  MEMB      176             0.0000000000
     20390       176  SAPE      C315          -30.2236688556      -24.4907309474       -6.1808914737  MEMB      176             0.0000000000
     20391       176  SAPE      H15X          -30.7587729551      -23.5345068198       -6.3642484216  MEMB      176             0.0000000000
     20392       176  SAPE      H15Y          -29.1684874879      -24.1486488659       -6.2432868683  MEMB      176             0.0000000000
     20393       176  SAPE      C316          -30.6607484404      -24.9721089794       -4.7711975855  MEMB      176             0.0000000000
     20394       176  SAPE      H16X          -30.5671580519      -26.0765962104       -4.6958961280  MEMB      176             0.0000000000
     20395       176  SAPE      H16Y          -31.6790913085      -24.6067041889       -4.5186550685  MEMB      176             0.0000000000
     20396       176  SAPE      C317          -29.8033579861      -24.4482824406       -3.5703490123  MEMB      176             0.0000000000
     20397       176  SAPE      H17X          -30.2455273736      -24.7081531991       -2.5848162457  MEMB      176             0.0000000000
     20398       176  SAPE      H17Y          -29.6222053160      -23.3523677281       -3.5921480474  MEMB      176             0.0000000000
     20399       176  SAPE      C318          -28.3418385437      -24.9053571763       -3.5749517527  MEMB      176             0.0000000000
     20400       176  SAPE      H18X          -28.2911326160      -25.9554660513       -3.2157578333  MEMB      176             0.0000000000
     20401       176  SAPE      H18Y          -27.8812677973      -24.2498002817       -2.8052496883  MEMB      176             0.0000000000
     20402       176  SAPE      H18Z          -27.7546518772      -24.6293532750       -4.4768135399  MEMB      176             0.0000000000
     20403       177  OSM       N             -23.9100752637       32.2101693916      -21.2345843448  MEMB      177             0.0000000000
     20404       177  OSM       C15           -25.2099380571       31.7218545211      -20.7974209733  MEMB      177             0.0000000000
     20405       177  OSM       H15A          -25.5977576653       32.4817215755      -20.1351534425  MEMB      177             0.0000000000
     20406       177  OSM       H15B          -25.0741038510       30.8258082452      -20.2100112797  MEMB      177             0.0000000000
     20407       177  OSM       H15C          -25.8853691002       31.4453680306      -21.5935040043  MEMB      177             0.0000000000
     20408       177  OSM       C14           -23.2613009435       30.9910235114      -21.9284878724  MEMB      177             0.0000000000
     20409       177  OSM       H14A          -23.7740517465       30.8558904257      -22.8693521614  MEMB      177             0.0000000000
     20410       177  OSM       H14B          -23.2032773668       30.2038195066      -21.1913696463  MEMB      177             0.0000000000
     20411       177  OSM       H14C          -22.2411443150       31.2774672849      -22.1373668451  MEMB      177             0.0000000000
     20412       177  OSM       C13           -24.1489118220       33.2943016492      -22.3219647286  MEMB      177             0.0000000000
     20413       177  OSM       H13A          -24.8059881985       32.9561241872      -23.1095473804  MEMB      177             0.0000000000
     20414       177  OSM       H13B          -23.1593283453       33.4342220252      -22.7312894066  MEMB      177             0.0000000000
     20415       177  OSM       H13C          -24.3407419637       34.2731900375      -21.9079855812  MEMB      177             0.0000000000
     20416       177  OSM       C12           -22.9179038873       32.7099325965      -20.1860841876  MEMB      177             0.0000000000
     20417       177  OSM       H12A          -22.5831168031       31.8101832277      -19.6913432429  MEMB      177             0.0000000000
     20418       177  OSM       H12B          -23.4973771456       33.3531852787      -19.5404553436  MEMB      177             0.0000000000
     20419       177  OSM       C11           -21.5711961377       33.3204251677      -20.5842012454  MEMB      177             0.0000000000
     20420       177  OSM       H11A          -20.9549197778       33.5786572590      -19.6965974385  MEMB      177             0.0000000000
     20421       177  OSM       H11B          -21.9276949568       34.2555457613      -21.0666730930  MEMB      177             0.0000000000
     20422       177  OSM       P             -19.6166193926       31.3981771348      -20.8139766026  MEMB      177             0.0000000000
     20423       177  OSM       O13           -19.6077489652       30.1741797037      -21.7174900772  MEMB      177             0.0000000000
     20424       177  OSM       O14           -18.3225156620       32.0499735450      -20.5570727392  MEMB      177             0.0000000000
     20425       177  OSM       O11           -20.2323515689       30.8785341693      -19.5027754732  MEMB      177             0.0000000000
     20426       177  OSM       O12           -20.7456109244       32.4452408914      -21.3559417568  MEMB      177             0.0000000000
     20427       177  OSM       C1S           -20.7993121004       29.6704661964      -19.1290241295  MEMB      177             0.0000000000
     20428       177  OSM       H1S           -20.1795794307       28.8312870180      -19.5111635794  MEMB      177             0.0000000000
     20429       177  OSM       H1T           -21.7964926519       29.6111139012      -19.6152641507  MEMB      177             0.0000000000
     20430       177  OSM       NF            -22.0686770520       30.4072161481      -17.1585490053  MEMB      177             0.0000000000
     20431       177  OSM       HNF           -21.7189548810       30.9767625839      -16.4187382074  MEMB      177             0.0000000000
     20432       177  OSM       C2S           -20.9828598777       29.5544793390      -17.6234877414  MEMB      177             0.0000000000
     20433       177  OSM       H2S           -21.2943229160       28.5248320781      -17.3457502229  MEMB      177             0.0000000000
     20434       177  OSM       C3S           -19.6455154673       29.9266512977      -16.8959811535  MEMB      177             0.0000000000
     20435       177  OSM       H3S           -19.0247138854       30.6732145945      -17.4359529223  MEMB      177             0.0000000000
     20436       177  OSM       O3            -18.7985252640       28.8067017856      -16.8176859992  MEMB      177             0.0000000000
     20437       177  OSM       HO3           -19.2943955586       28.0097935713      -17.0193041366  MEMB      177             0.0000000000
     20438       177  OSM       C4S           -19.8085489428       30.3775573380      -15.4731038478  MEMB      177             0.0000000000
     20439       177  OSM       H4S           -20.3669555169       29.6447844134      -14.8720833197  MEMB      177             0.0000000000
     20440       177  OSM       C5S           -19.7471879609       31.6317500582      -15.0528226424  MEMB      177             0.0000000000
     20441       177  OSM       H5S           -19.5392059314       32.5201519337      -15.6672208867  MEMB      177             0.0000000000
     20442       177  OSM       C6S           -19.9142836693       32.1041442065      -13.5911622460  MEMB      177             0.0000000000
     20443       177  OSM       H6S           -20.4961692048       33.0490629468      -13.5376942060  MEMB      177             0.0000000000
     20444       177  OSM       H6T           -18.9708913784       32.4724545548      -13.1343476655  MEMB      177             0.0000000000
     20445       177  OSM       C7S           -20.4924935200       31.0573583220      -12.6664452541  MEMB      177             0.0000000000
     20446       177  OSM       H7S           -20.0907826241       30.0340199948      -12.8268450475  MEMB      177             0.0000000000
     20447       177  OSM       H7T           -21.5467999576       30.9622825860      -13.0036690120  MEMB      177             0.0000000000
     20448       177  OSM       C8S           -20.5897760286       31.5405427317      -11.1779677978  MEMB      177             0.0000000000
     20449       177  OSM       H8S           -21.2257093997       30.8388594458      -10.5969766345  MEMB      177             0.0000000000
     20450       177  OSM       H8T           -20.9514477028       32.5904318856      -11.2132866565  MEMB      177             0.0000000000
     20451       177  OSM       C9S           -19.2454651801       31.5627555762      -10.4374325355  MEMB      177             0.0000000000
     20452       177  OSM       H9S           -18.4893756395       31.9541066521      -11.1512203319  MEMB      177             0.0000000000
     20453       177  OSM       H9T           -18.9669688314       30.5321073570      -10.1299827138  MEMB      177             0.0000000000
     20454       177  OSM       C10S          -19.1358456650       32.5062116034       -9.2538695302  MEMB      177             0.0000000000
     20455       177  OSM       H10S          -19.2435208920       33.5702285699       -9.5548591196  MEMB      177             0.0000000000
     20456       177  OSM       H10T          -18.1221798242       32.5860900957       -8.8061839828  MEMB      177             0.0000000000
     20457       177  OSM       C11S          -20.1781321029       32.1273372758       -8.2628128441  MEMB      177             0.0000000000
     20458       177  OSM       H11S          -20.4540576560       31.0512338162       -8.2491242335  MEMB      177             0.0000000000
     20459       177  OSM       H11T          -21.0997020080       32.6384213125       -8.6146976723  MEMB      177             0.0000000000
     20460       177  OSM       C12S          -20.0028666545       32.6406113121       -6.7961866052  MEMB      177             0.0000000000
     20461       177  OSM       H12S          -20.9710694623       32.6232158765       -6.2515752906  MEMB      177             0.0000000000
     20462       177  OSM       H12T          -19.8306601793       33.7360805561       -6.7282668756  MEMB      177             0.0000000000
     20463       177  OSM       C13S          -18.8251511980       31.9834573184       -6.0203880445  MEMB      177             0.0000000000
     20464       177  OSM       H13S          -17.9131855641       32.0926814907       -6.6454555537  MEMB      177             0.0000000000
     20465       177  OSM       H13T          -19.0775080020       30.9015529607       -6.0313357106  MEMB      177             0.0000000000
     20466       177  OSM       C14S          -18.6674818521       32.4525887575       -4.6667579375  MEMB      177             0.0000000000
     20467       177  OSM       H14S          -18.4225422810       33.5334321230       -4.7448798506  MEMB      177             0.0000000000
     20468       177  OSM       H14T          -17.8299995719       31.9149545197       -4.1729015909  MEMB      177             0.0000000000
     20469       177  OSM       C15S          -19.8261006122       32.2031618846       -3.6976274838  MEMB      177             0.0000000000
     20470       177  OSM       H15S          -19.9524171902       31.1145417338       -3.5152240067  MEMB      177             0.0000000000
     20471       177  OSM       H15T          -20.7983914419       32.5456704470       -4.1119455057  MEMB      177             0.0000000000
     20472       177  OSM       C16S          -19.5805729624       32.7589817099       -2.2706559602  MEMB      177             0.0000000000
     20473       177  OSM       H16S          -18.5205860767       32.5471923557       -2.0139561296  MEMB      177             0.0000000000
     20474       177  OSM       H16T          -20.2802771830       32.3133233209       -1.5316546077  MEMB      177             0.0000000000
     20475       177  OSM       C17S          -19.8191497573       34.3335714385       -2.1723212067  MEMB      177             0.0000000000
     20476       177  OSM       H17S          -20.8993236989       34.5817638200       -2.0952125393  MEMB      177             0.0000000000
     20477       177  OSM       H17T          -19.4354908297       34.7278023367       -3.1375708269  MEMB      177             0.0000000000
     20478       177  OSM       C18S          -19.0775246018       35.0881862133       -1.1048908510  MEMB      177             0.0000000000
     20479       177  OSM       H18S          -17.9794014543       35.0323086148       -1.2640265003  MEMB      177             0.0000000000
     20480       177  OSM       H18T          -19.4943835859       34.6785866326       -0.1600212361  MEMB      177             0.0000000000
     20481       177  OSM       H18U          -19.3889455557       36.1531626441       -1.1611323312  MEMB      177             0.0000000000
     20482       177  OSM       C1F           -23.3223887321       30.2931872159      -17.5896278994  MEMB      177             0.0000000000
     20483       177  OSM       OF            -23.7753603020       29.2836822817      -18.1464826605  MEMB      177             0.0000000000
     20484       177  OSM       C2F           -24.2405630154       31.5814967905      -17.3499433068  MEMB      177             0.0000000000
     20485       177  OSM       H2F           -25.1129795008       31.5327789238      -18.0361188625  MEMB      177             0.0000000000
     20486       177  OSM       H2G           -23.6293674312       32.4843276439      -17.5636190139  MEMB      177             0.0000000000
     20487       177  OSM       C3F           -24.6709630279       31.6594696600      -15.8208132935  MEMB      177             0.0000000000
     20488       177  OSM       H3F           -23.9587123030       31.1768434017      -15.1178967131  MEMB      177             0.0000000000
     20489       177  OSM       H3G           -25.5918311500       31.0464538458      -15.7181745195  MEMB      177             0.0000000000
     20490       177  OSM       C4F           -24.8300283997       33.0808458415      -15.3354504505  MEMB      177             0.0000000000
     20491       177  OSM       H4F           -25.5339010311       33.0379443464      -14.4769376960  MEMB      177             0.0000000000
     20492       177  OSM       H4G           -25.2389925114       33.7094647327      -16.1551503071  MEMB      177             0.0000000000
     20493       177  OSM       C5F           -23.4983630063       33.5724850844      -14.6888687451  MEMB      177             0.0000000000
     20494       177  OSM       H5F           -22.8786284082       33.4138378536      -15.5972085636  MEMB      177             0.0000000000
     20495       177  OSM       H5G           -23.1125585929       32.8008831974      -13.9887929370  MEMB      177             0.0000000000
     20496       177  OSM       C6F           -23.4285355106       35.0499420657      -14.2961767508  MEMB      177             0.0000000000
     20497       177  OSM       H6F           -24.0293808222       35.7056696342      -14.9620046157  MEMB      177             0.0000000000
     20498       177  OSM       H6G           -22.4357426084       35.4976109687      -14.5158951436  MEMB      177             0.0000000000
     20499       177  OSM       C7F           -23.8906835987       35.3261134913      -12.8671340752  MEMB      177             0.0000000000
     20500       177  OSM       H7F           -24.9429016859       34.9706263716      -12.8951851874  MEMB      177             0.0000000000
     20501       177  OSM       H7G           -23.9127904231       36.4365773318      -12.8406299806  MEMB      177             0.0000000000
     20502       177  OSM       C8F           -23.0432725876       34.6987385796      -11.8195837916  MEMB      177             0.0000000000
     20503       177  OSM       H8F           -22.0092162625       35.0837489757      -11.9492590779  MEMB      177             0.0000000000
     20504       177  OSM       H8G           -23.1105743562       33.5970907937      -11.9467202036  MEMB      177             0.0000000000
     20505       177  OSM       C9F           -23.5372654401       35.2760845508      -10.4616370319  MEMB      177             0.0000000000
     20506       177  OSM       H9F           -23.4343690053       36.3701001985      -10.4112185792  MEMB      177             0.0000000000
     20507       177  OSM       C10F          -24.0217520930       34.5148420673       -9.4740344879  MEMB      177             0.0000000000
     20508       177  OSM       H10F          -24.3064494556       34.9788425530       -8.5181834925  MEMB      177             0.0000000000
     20509       177  OSM       C11F          -24.2075272571       32.9652823440       -9.3962270387  MEMB      177             0.0000000000
     20510       177  OSM       H11F          -23.3990471536       32.4466054833       -9.9544874055  MEMB      177             0.0000000000
     20511       177  OSM       H11G          -25.1340719383       32.6094268800       -9.8954287838  MEMB      177             0.0000000000
     20512       177  OSM       C12F          -24.2107027781       32.3885858395       -7.9967737722  MEMB      177             0.0000000000
     20513       177  OSM       H12F          -25.1650488195       32.6986294140       -7.5198904322  MEMB      177             0.0000000000
     20514       177  OSM       H12G          -23.3737347955       32.8062031911       -7.3972728477  MEMB      177             0.0000000000
     20515       177  OSM       C13F          -24.1105184292       30.9243525482       -7.8955144104  MEMB      177             0.0000000000
     20516       177  OSM       H13F          -23.3016635863       30.5094385590       -8.5342014139  MEMB      177             0.0000000000
     20517       177  OSM       H13G          -25.0604793890       30.4949982022       -8.2796364895  MEMB      177             0.0000000000
     20518       177  OSM       C14F          -23.9523293722       30.3295200741       -6.4373839832  MEMB      177             0.0000000000
     20519       177  OSM       H14F          -22.9842729530       30.4990480131       -5.9192642351  MEMB      177             0.0000000000
     20520       177  OSM       H14G          -23.9273538034       29.2189714152       -6.4568366472  MEMB      177             0.0000000000
     20521       177  OSM       C15F          -24.9390717054       30.8128188005       -5.3175481296  MEMB      177             0.0000000000
     20522       177  OSM       H15F          -25.9445782317       30.6625548967       -5.7655411729  MEMB      177             0.0000000000
     20523       177  OSM       H15G          -24.8449919835       31.9197301934       -5.3028064683  MEMB      177             0.0000000000
     20524       177  OSM       C16F          -24.9275094947       30.0127268684       -3.9512680604  MEMB      177             0.0000000000
     20525       177  OSM       H16F          -24.7841441291       28.9177551184       -4.0729403904  MEMB      177             0.0000000000
     20526       177  OSM       H16G          -25.9504204567       30.1149650345       -3.5299349330  MEMB      177             0.0000000000
     20527       177  OSM       C17F          -23.8039028211       30.3847852018       -2.9507387304  MEMB      177             0.0000000000
     20528       177  OSM       H17F          -24.0759441889       31.3634610223       -2.5007295657  MEMB      177             0.0000000000
     20529       177  OSM       H17G          -22.7680361509       30.3782885442       -3.3523087980  MEMB      177             0.0000000000
     20530       177  OSM       C18F          -23.7669807761       29.4377879774       -1.7196405533  MEMB      177             0.0000000000
     20531       177  OSM       H18F          -24.7736129212       29.3372434993       -1.2603968709  MEMB      177             0.0000000000
     20532       177  OSM       H18G          -23.2110799176       29.8754783405       -0.8630642507  MEMB      177             0.0000000000
     20533       177  OSM       H18H          -23.2186652295       28.5006496699       -1.9551036550  MEMB      177             0.0000000000
     20534       178  CHL1      C3             22.6297054200       30.8473406346      -17.3239850000  MEMB      178             0.0000000000
     20535       178  CHL1      H3             21.5506046906       30.5980104693      -17.2362550000  MEMB      178             0.0000000000
     20536       178  CHL1      O3             22.8096445800       31.1975395654      -18.6760150000  MEMB      178             0.0000000000
     20537       178  CHL1      H3'            23.7059739412       31.5377970724      -18.7252050000  MEMB      178             0.0000000000
     20538       178  CHL1      C4             22.8488523235       32.0724882589      -16.4308450000  MEMB      178             0.0000000000
     20539       178  CHL1      H4A            23.8888237737       32.4522671218      -16.5231950000  MEMB      178             0.0000000000
     20540       178  CHL1      H4B            22.0765908895       32.7598000525      -16.8377150000  MEMB      178             0.0000000000
     20541       178  CHL1      C5             22.4990178726       31.6742675142      -15.0555950000  MEMB      178             0.0000000000
     20542       178  CHL1      C6             21.4958140715       32.2705171096      -14.3329050000  MEMB      178             0.0000000000
     20543       178  CHL1      H6             20.9624698762       33.1514797023      -14.7195150000  MEMB      178             0.0000000000
     20544       178  CHL1      C7             21.2859581447       32.0092957055      -12.8608050000  MEMB      178             0.0000000000
     20545       178  CHL1      H7A            21.1377188848       32.9546180710      -12.2962550000  MEMB      178             0.0000000000
     20546       178  CHL1      H7B            20.3186459603       31.4737921288      -12.9697650000  MEMB      178             0.0000000000
     20547       178  CHL1      C8             22.3680375889       31.1205407648      -12.1754350000  MEMB      178             0.0000000000
     20548       178  CHL1      H8             23.2686071196       31.7626708048      -12.0707150000  MEMB      178             0.0000000000
     20549       178  CHL1      C14            21.9263787190       30.5514779333      -10.7803150000  MEMB      178             0.0000000000
     20550       178  CHL1      H14            20.9288800943       30.0934972521      -10.9522550000  MEMB      178             0.0000000000
     20551       178  CHL1      C15            21.7567682512       31.6096649752       -9.6441050000  MEMB      178             0.0000000000
     20552       178  CHL1      H15A           22.5474078956       32.3782075581       -9.7802850000  MEMB      178             0.0000000000
     20553       178  CHL1      H15B           20.7560447478       32.0868620018       -9.5723150000  MEMB      178             0.0000000000
     20554       178  CHL1      C16            22.0860753849       30.8519515060       -8.3028250000  MEMB      178             0.0000000000
     20555       178  CHL1      H16A           22.9623366489       31.2949015754       -7.7829350000  MEMB      178             0.0000000000
     20556       178  CHL1      H16B           21.3077145640       30.8727850242       -7.5103450000  MEMB      178             0.0000000000
     20557       178  CHL1      C17            22.5340415765       29.3658499614       -8.7538750000  MEMB      178             0.0000000000
     20558       178  CHL1      H17            21.6556598578       28.6996871563       -8.8916950000  MEMB      178             0.0000000000
     20559       178  CHL1      C13            22.9792638932       29.5319996673      -10.2919150000  MEMB      178             0.0000000000
     20560       178  CHL1      C18            24.4478910825       30.1381012657      -10.1186650000  MEMB      178             0.0000000000
     20561       178  CHL1      H18A           24.3619744845       31.1200453724       -9.6060850000  MEMB      178             0.0000000000
     20562       178  CHL1      H18B           25.2035760300       29.4337197857       -9.7098850000  MEMB      178             0.0000000000
     20563       178  CHL1      H18C           24.7609282435       30.3963130462      -11.1529050000  MEMB      178             0.0000000000
     20564       178  CHL1      C12            22.9646252944       28.2392287887      -11.1670750000  MEMB      178             0.0000000000
     20565       178  CHL1      H12A           23.6204361559       27.4399538982      -10.7603850000  MEMB      178             0.0000000000
     20566       178  CHL1      H12B           22.0121666241       27.6678949187      -11.1938750000  MEMB      178             0.0000000000
     20567       178  CHL1      C11            23.3152660335       28.6668162986      -12.5847050000  MEMB      178             0.0000000000
     20568       178  CHL1      H11A           24.4069982869       28.7721954493      -12.7617150000  MEMB      178             0.0000000000
     20569       178  CHL1      H11B           23.0516001922       27.8340581530      -13.2712350000  MEMB      178             0.0000000000
     20570       178  CHL1      C9             22.6198084077       29.9847235888      -13.1661650000  MEMB      178             0.0000000000
     20571       178  CHL1      H9             21.5806771390       29.6550919472      -13.3803350000  MEMB      178             0.0000000000
     20572       178  CHL1      C10            23.2884223907       30.4441345843      -14.5168150000  MEMB      178             0.0000000000
     20573       178  CHL1      C19            24.7098845930       30.9963542071      -14.2341450000  MEMB      178             0.0000000000
     20574       178  CHL1      H19A           25.3594412713       30.2201199263      -13.7760550000  MEMB      178             0.0000000000
     20575       178  CHL1      H19B           25.1939485907       31.2845705957      -15.1917150000  MEMB      178             0.0000000000
     20576       178  CHL1      H19C           24.6932523609       31.8272925141      -13.4968550000  MEMB      178             0.0000000000
     20577       178  CHL1      C1             23.2784226382       29.2633427824      -15.4775850000  MEMB      178             0.0000000000
     20578       178  CHL1      H1A            23.9802496312       28.4660151284      -15.1519650000  MEMB      178             0.0000000000
     20579       178  CHL1      H1B            22.2813912966       28.7750066923      -15.4354350000  MEMB      178             0.0000000000
     20580       178  CHL1      C2             23.5838206435       29.6405062123      -16.9732150000  MEMB      178             0.0000000000
     20581       178  CHL1      H2A            23.3612058591       28.7889709736      -17.6511950000  MEMB      178             0.0000000000
     20582       178  CHL1      H2B            24.6587581042       29.9212843933      -16.9734650000  MEMB      178             0.0000000000
     20583       178  CHL1      C20            23.4090177123       28.6839032888       -7.6886750000  MEMB      178             0.0000000000
     20584       178  CHL1      H20            24.3790560056       29.2051736216       -7.5416050000  MEMB      178             0.0000000000
     20585       178  CHL1      C21            23.8479251540       27.3111913749       -8.1074150000  MEMB      178             0.0000000000
     20586       178  CHL1      H21A           23.0740319186       26.6132443463       -8.4924950000  MEMB      178             0.0000000000
     20587       178  CHL1      H21B           24.4833161862       26.8320989865       -7.3321250000  MEMB      178             0.0000000000
     20588       178  CHL1      H21C           24.6883120164       27.3122095972       -8.8341050000  MEMB      178             0.0000000000
     20589       178  CHL1      C22            22.7800374698       28.6970991835       -6.2906250000  MEMB      178             0.0000000000
     20590       178  CHL1      H22A           23.5766024854       28.4646505255       -5.5518750000  MEMB      178             0.0000000000
     20591       178  CHL1      H22B           22.5638579405       29.7365145285       -5.9631850000  MEMB      178             0.0000000000
     20592       178  CHL1      C23            21.5473246941       27.8359408857       -6.0741750000  MEMB      178             0.0000000000
     20593       178  CHL1      H23A           20.7564720078       28.1618949842       -6.7831350000  MEMB      178             0.0000000000
     20594       178  CHL1      H23B           21.8554606730       26.7930072778       -6.3014550000  MEMB      178             0.0000000000
     20595       178  CHL1      C24            20.8974201733       27.8541128306       -4.6852850000  MEMB      178             0.0000000000
     20596       178  CHL1      H24A           21.7233958081       27.6414462446       -3.9733450000  MEMB      178             0.0000000000
     20597       178  CHL1      H24B           20.4924502266       28.8524710655       -4.4140150000  MEMB      178             0.0000000000
     20598       178  CHL1      C25            19.7894008705       26.8230691765       -4.5135350000  MEMB      178             0.0000000000
     20599       178  CHL1      H25            20.1864431203       25.8173096024       -4.7687650000  MEMB      178             0.0000000000
     20600       178  CHL1      C26            19.3003057636       26.8927424378       -3.0907550000  MEMB      178             0.0000000000
     20601       178  CHL1      H26A           20.0942436866       26.6414351244       -2.3553450000  MEMB      178             0.0000000000
     20602       178  CHL1      H26B           18.9529438426       27.9232409960       -2.8633050000  MEMB      178             0.0000000000
     20603       178  CHL1      H26C           18.4524412944       26.2001926647       -2.9014850000  MEMB      178             0.0000000000
     20604       178  CHL1      C27            18.5700523271       27.2397933829       -5.3996250000  MEMB      178             0.0000000000
     20605       178  CHL1      H27A           18.2071581263       28.2791150747       -5.2497750000  MEMB      178             0.0000000000
     20606       178  CHL1      H27B           18.8695151606       27.1377889427       -6.4646350000  MEMB      178             0.0000000000
     20607       178  CHL1      H27C           17.6891639479       26.5926269973       -5.2007950000  MEMB      178             0.0000000000
     20608       179  SAPS      N              27.5379683603       24.7929260100      -18.3425756545  MEMB      179             0.0000000000
     20609       179  SAPS      HN1            26.8602310447       25.5505571861      -18.5622736050  MEMB      179             0.0000000000
     20610       179  SAPS      HN2            27.0039873956       23.9268518601      -18.1272159424  MEMB      179             0.0000000000
     20611       179  SAPS      HN3            28.2580324310       25.0241061369      -17.6286683834  MEMB      179             0.0000000000
     20612       179  SAPS      C12            28.2780859067       24.5512105580      -19.6948550532  MEMB      179             0.0000000000
     20613       179  SAPS      H12A           29.2500024436       24.2351484746      -19.3457376509  MEMB      179             0.0000000000
     20614       179  SAPS      C13            27.7478534679       23.3971851046      -20.4780614394  MEMB      179             0.0000000000
     20615       179  SAPS      O13A           26.8711599828       22.6012411830      -20.0225591197  MEMB      179             0.0000000000
     20616       179  SAPS      O13B           28.1978338038       23.2914276856      -21.6792494993  MEMB      179             0.0000000000
     20617       179  SAPS      C11            28.3597763216       25.8391641413      -20.5887694934  MEMB      179             0.0000000000
     20618       179  SAPS      H11A           27.3230290639       25.9294674848      -20.9777701082  MEMB      179             0.0000000000
     20619       179  SAPS      H11B           28.9324629641       25.7254723385      -21.5339812264  MEMB      179             0.0000000000
     20620       179  SAPS      P              30.2211486513       27.5127675735      -19.9043220385  MEMB      179             0.0000000000
     20621       179  SAPS      O13            30.6417825499       27.3233854231      -21.3008872921  MEMB      179             0.0000000000
     20622       179  SAPS      O14            30.3130082235       28.8625747368      -19.2378866643  MEMB      179             0.0000000000
     20623       179  SAPS      O12            28.7357156306       26.9544204515      -19.7434796822  MEMB      179             0.0000000000
     20624       179  SAPS      O11            31.0401741991       26.5460463360      -19.0073540767  MEMB      179             0.0000000000
     20625       179  SAPS      C1             32.1916475728       26.9956887159      -18.3306448298  MEMB      179             0.0000000000
     20626       179  SAPS      HA             32.9561714895       26.2205441073      -18.5519479461  MEMB      179             0.0000000000
     20627       179  SAPS      HB             32.5883236816       28.0084391662      -18.5571521488  MEMB      179             0.0000000000
     20628       179  SAPS      C2             32.1060984132       26.8345084677      -16.7731185266  MEMB      179             0.0000000000
     20629       179  SAPS      HS             33.1375831039       26.8147502296      -16.3608443842  MEMB      179             0.0000000000
     20630       179  SAPS      O21            31.4296772956       25.6174550937      -16.4438243067  MEMB      179             0.0000000000
     20631       179  SAPS      C21            32.0787997614       24.4704128913      -16.5583800470  MEMB      179             0.0000000000
     20632       179  SAPS      O22            33.2655034061       24.4456088351      -16.7361460980  MEMB      179             0.0000000000
     20633       179  SAPS      C22            31.0866862095       23.3307920433      -16.3043204366  MEMB      179             0.0000000000
     20634       179  SAPS      H2R            30.0592497318       23.7139405975      -16.1257355273  MEMB      179             0.0000000000
     20635       179  SAPS      H2S            31.0074646279       22.6953115381      -17.2121804016  MEMB      179             0.0000000000
     20636       179  SAPS      C3             31.3725386370       28.0444041805      -16.0950778552  MEMB      179             0.0000000000
     20637       179  SAPS      HX             31.9885575640       28.9031259979      -16.4377713976  MEMB      179             0.0000000000
     20638       179  SAPS      HY             31.4632525011       27.9314519066      -14.9935636827  MEMB      179             0.0000000000
     20639       179  SAPS      O31            29.9653535505       28.1827802245      -16.4936074968  MEMB      179             0.0000000000
     20640       179  SAPS      C31            29.4317268910       29.2623693039      -16.0724012552  MEMB      179             0.0000000000
     20641       179  SAPS      O32            29.9831606569       30.0319159814      -15.3158293520  MEMB      179             0.0000000000
     20642       179  SAPS      C32            28.0441119000       29.3536644206      -16.6226146526  MEMB      179             0.0000000000
     20643       179  SAPS      H2X            28.2239562550       29.3500926153      -17.7189558662  MEMB      179             0.0000000000
     20644       179  SAPS      H2Y            27.5533167115       30.3183023207      -16.3717863328  MEMB      179             0.0000000000
     20645       179  SAPS      C23            31.5325065920       22.2697927015      -15.2990547950  MEMB      179             0.0000000000
     20646       179  SAPS      H3R            32.6311758787       22.1324053925      -15.3905509794  MEMB      179             0.0000000000
     20647       179  SAPS      H3S            30.9494736321       21.3611335114      -15.5612230022  MEMB      179             0.0000000000
     20648       179  SAPS      C24            31.2216813045       22.6714324111      -13.8482643688  MEMB      179             0.0000000000
     20649       179  SAPS      H4R            31.6429126193       21.8058618255      -13.2935822259  MEMB      179             0.0000000000
     20650       179  SAPS      H4S            30.1147531477       22.6446199566      -13.7570927984  MEMB      179             0.0000000000
     20651       179  SAPS      C25            31.8957792843       23.9078686627      -13.2517982926  MEMB      179             0.0000000000
     20652       179  SAPS      H5R            32.9240154829       24.1571798508      -13.5527535301  MEMB      179             0.0000000000
     20653       179  SAPS      C26            31.3691509698       24.6713043596      -12.2343899046  MEMB      179             0.0000000000
     20654       179  SAPS      H6R            31.7645888101       25.6727483194      -12.0091369788  MEMB      179             0.0000000000
     20655       179  SAPS      C27            30.0066793628       24.3530767828      -11.5953005781  MEMB      179             0.0000000000
     20656       179  SAPS      H7R            29.6152705814       23.3921311868      -11.9924195171  MEMB      179             0.0000000000
     20657       179  SAPS      H7S            29.2544177393       25.1187146458      -11.8820438537  MEMB      179             0.0000000000
     20658       179  SAPS      C28            30.3027691123       24.1347253010      -10.0927940827  MEMB      179             0.0000000000
     20659       179  SAPS      H8R            30.7783774974       24.9539631815       -9.5336469275  MEMB      179             0.0000000000
     20660       179  SAPS      C29            29.9633303601       23.0855371623       -9.3495150694  MEMB      179             0.0000000000
     20661       179  SAPS      H9R            30.2105622167       22.9883296125       -8.2820752089  MEMB      179             0.0000000000
     20662       179  SAPS      C210           29.1692379470       21.8765251239       -9.7972089875  MEMB      179             0.0000000000
     20663       179  SAPS      H10R           28.5108201258       21.9739867325      -10.6867641148  MEMB      179             0.0000000000
     20664       179  SAPS      H10S           28.4337974682       21.6372891277       -8.9995786561  MEMB      179             0.0000000000
     20665       179  SAPS      C211           30.0038875904       20.6934868305       -9.8960947926  MEMB      179             0.0000000000
     20666       179  SAPS      H11R           30.5458868163       20.7313245590      -10.8525494532  MEMB      179             0.0000000000
     20667       179  SAPS      C212           30.2995826411       19.5970294012       -9.0539321426  MEMB      179             0.0000000000
     20668       179  SAPS      H12R           30.9469475823       18.8392533228       -9.5194361771  MEMB      179             0.0000000000
     20669       179  SAPS      C213           29.6266758234       19.5006067509       -7.7521074657  MEMB      179             0.0000000000
     20670       179  SAPS      H13R           28.8062600644       18.7734348144       -7.9322756299  MEMB      179             0.0000000000
     20671       179  SAPS      H13S           29.1651123967       20.4829100516       -7.5147048076  MEMB      179             0.0000000000
     20672       179  SAPS      C214           30.6363689224       19.2720546216       -6.6275321812  MEMB      179             0.0000000000
     20673       179  SAPS      H14R           31.2370046307       18.3507716607       -6.6493162071  MEMB      179             0.0000000000
     20674       179  SAPS      C215           30.6755402895       19.9410313881       -5.4487178267  MEMB      179             0.0000000000
     20675       179  SAPS      H15R           31.3559975168       19.5475585491       -4.6792012302  MEMB      179             0.0000000000
     20676       179  SAPS      C216           29.8151341087       21.1125205334       -4.9302487789  MEMB      179             0.0000000000
     20677       179  SAPS      H16R           29.2510644809       20.8009712427       -4.0252155627  MEMB      179             0.0000000000
     20678       179  SAPS      H16S           29.1265812368       21.5327398541       -5.6942066519  MEMB      179             0.0000000000
     20679       179  SAPS      C217           30.6391558098       22.3416004293       -4.5862863422  MEMB      179             0.0000000000
     20680       179  SAPS      H17R           29.8990061068       23.1550400320       -4.4287566962  MEMB      179             0.0000000000
     20681       179  SAPS      H17S           31.1893478856       22.7626022477       -5.4548305575  MEMB      179             0.0000000000
     20682       179  SAPS      C218           31.6341957376       22.1090971582       -3.4173579269  MEMB      179             0.0000000000
     20683       179  SAPS      H18R           32.0934720091       21.0993155949       -3.4784071242  MEMB      179             0.0000000000
     20684       179  SAPS      H18S           31.0136412176       22.0982944216       -2.4958836425  MEMB      179             0.0000000000
     20685       179  SAPS      C219           32.6559218072       23.2879158177       -3.3885761794  MEMB      179             0.0000000000
     20686       179  SAPS      H19R           32.0383871946       24.2114790530       -3.3902547307  MEMB      179             0.0000000000
     20687       179  SAPS      H19S           33.3231671040       23.0697188888       -4.2496771210  MEMB      179             0.0000000000
     20688       179  SAPS      C220           33.6646063650       23.3007902082       -2.2331223966  MEMB      179             0.0000000000
     20689       179  SAPS      H20R           34.4456024192       24.0862080488       -2.3196362911  MEMB      179             0.0000000000
     20690       179  SAPS      H20S           34.1499495582       22.3016872583       -2.2095324489  MEMB      179             0.0000000000
     20691       179  SAPS      H20T           33.2671889297       23.4283550564       -1.2035063195  MEMB      179             0.0000000000
     20692       179  SAPS      C33            27.0818412399       28.2240416991      -16.1696175697  MEMB      179             0.0000000000
     20693       179  SAPS      H3X            27.4362642990       27.1805796514      -16.3106569551  MEMB      179             0.0000000000
     20694       179  SAPS      H3Y            26.0858527433       28.3406695256      -16.6478700819  MEMB      179             0.0000000000
     20695       179  SAPS      C34            26.7447694022       28.4417800326      -14.6950472252  MEMB      179             0.0000000000
     20696       179  SAPS      H4X            26.5486908647       29.5169731597      -14.4954638156  MEMB      179             0.0000000000
     20697       179  SAPS      H4Y            27.6903970290       28.1674378473      -14.1804153447  MEMB      179             0.0000000000
     20698       179  SAPS      C35            25.5403475834       27.5560018089      -14.2584259285  MEMB      179             0.0000000000
     20699       179  SAPS      H5X            24.6039524386       27.7491827293      -14.8242583833  MEMB      179             0.0000000000
     20700       179  SAPS      H5Y            25.3105810016       27.7715741373      -13.1930353488  MEMB      179             0.0000000000
     20701       179  SAPS      C36            25.6937570860       26.0959426965      -14.5371433326  MEMB      179             0.0000000000
     20702       179  SAPS      H6X            26.7088188318       25.7376174163      -14.2622367746  MEMB      179             0.0000000000
     20703       179  SAPS      H6Y            25.4771189265       26.0186292201      -15.6240709748  MEMB      179             0.0000000000
     20704       179  SAPS      C37            24.7279217575       25.1217957769      -13.8918339833  MEMB      179             0.0000000000
     20705       179  SAPS      H7X            24.5240149020       24.3033390338      -14.6149324659  MEMB      179             0.0000000000
     20706       179  SAPS      H7Y            23.7921451560       25.6194818329      -13.5587393772  MEMB      179             0.0000000000
     20707       179  SAPS      C38            25.3301117307       24.2963703605      -12.6380297479  MEMB      179             0.0000000000
     20708       179  SAPS      H8X            26.1248309241       23.5537962292      -12.8645830669  MEMB      179             0.0000000000
     20709       179  SAPS      H8Y            24.5954222378       23.6197485171      -12.1514751764  MEMB      179             0.0000000000
     20710       179  SAPS      C39            25.6622640151       25.2699416609      -11.4520636880  MEMB      179             0.0000000000
     20711       179  SAPS      H9X            24.8130022027       25.8953269896      -11.1028236327  MEMB      179             0.0000000000
     20712       179  SAPS      H9Y            26.5028054528       25.9464254441      -11.7169795552  MEMB      179             0.0000000000
     20713       179  SAPS      C310           26.1465248030       24.5139280962      -10.1478784426  MEMB      179             0.0000000000
     20714       179  SAPS      H10X           26.9949939318       23.8560813843      -10.4336379659  MEMB      179             0.0000000000
     20715       179  SAPS      H10Y           25.3593167472       23.7969592129       -9.8307348356  MEMB      179             0.0000000000
     20716       179  SAPS      C311           26.6838506822       25.4529562872       -9.0077898503  MEMB      179             0.0000000000
     20717       179  SAPS      H11X           25.8058609724       26.0025136772       -8.6059923189  MEMB      179             0.0000000000
     20718       179  SAPS      H11Y           27.4265223851       26.1954219024       -9.3704257960  MEMB      179             0.0000000000
     20719       179  SAPS      C312           27.0924024433       24.7971156531       -7.6991837366  MEMB      179             0.0000000000
     20720       179  SAPS      H12X           27.8973533839       24.1720072040       -8.1414667126  MEMB      179             0.0000000000
     20721       179  SAPS      H12Y           26.2993484666       24.0580552075       -7.4559222416  MEMB      179             0.0000000000
     20722       179  SAPS      C313           27.4831637387       25.5987680988       -6.4561438328  MEMB      179             0.0000000000
     20723       179  SAPS      H13X           27.9674592558       24.8530284847       -5.7900717975  MEMB      179             0.0000000000
     20724       179  SAPS      H13Y           26.5872637651       26.0087700143       -5.9427404527  MEMB      179             0.0000000000
     20725       179  SAPS      C314           28.5309713952       26.6862232911       -6.6672507652  MEMB      179             0.0000000000
     20726       179  SAPS      H14X           28.1482356252       27.4955130071       -7.3251898523  MEMB      179             0.0000000000
     20727       179  SAPS      H14Y           29.4040804155       26.3216999971       -7.2495945326  MEMB      179             0.0000000000
     20728       179  SAPS      C315           29.1154376185       27.2441581683       -5.3002282535  MEMB      179             0.0000000000
     20729       179  SAPS      H15X           28.2058393319       27.5446195760       -4.7374895299  MEMB      179             0.0000000000
     20730       179  SAPS      H15Y           29.5668818993       28.2164248236       -5.5921473313  MEMB      179             0.0000000000
     20731       179  SAPS      C316           30.2488319398       26.4705915769       -4.6494833708  MEMB      179             0.0000000000
     20732       179  SAPS      H16X           30.9077329318       26.0071740277       -5.4146073625  MEMB      179             0.0000000000
     20733       179  SAPS      H16Y           29.8617381461       25.6555379588       -4.0012813727  MEMB      179             0.0000000000
     20734       179  SAPS      C317           31.3151200344       27.1804393258       -3.6830607441  MEMB      179             0.0000000000
     20735       179  SAPS      H17X           31.6822901726       28.0693695761       -4.2392170052  MEMB      179             0.0000000000
     20736       179  SAPS      H17Y           32.1394722055       26.4409601112       -3.5939838587  MEMB      179             0.0000000000
     20737       179  SAPS      C318           30.8810881946       27.5686623370       -2.2916134264  MEMB      179             0.0000000000
     20738       179  SAPS      H18X           30.4148215571       28.5768104699       -2.2680753758  MEMB      179             0.0000000000
     20739       179  SAPS      H18Y           31.6660236874       27.5422568049       -1.5058004312  MEMB      179             0.0000000000
     20740       179  SAPS      H18Z           30.1990875950       26.8944330539       -1.7307102819  MEMB      179             0.0000000000
     20741       180  SOPE      N             -19.3814964116      -33.3116534234      -23.3391421348  MEMB      180             0.0000000000
     20742       180  SOPE      HN1           -19.2292939938      -33.0860710151      -24.3429084640  MEMB      180             0.0000000000
     20743       180  SOPE      HN2           -20.3964738472      -33.1276747179      -23.2065804839  MEMB      180             0.0000000000
     20744       180  SOPE      HN3           -18.7464513654      -32.8448568231      -22.6606003463  MEMB      180             0.0000000000
     20745       180  SOPE      C12           -19.1863089807      -34.7536979652      -23.2376902575  MEMB      180             0.0000000000
     20746       180  SOPE      H12A          -18.2177265499      -34.9940562828      -23.7259494995  MEMB      180             0.0000000000
     20747       180  SOPE      H12B          -19.9688517755      -35.2107637804      -23.8803710711  MEMB      180             0.0000000000
     20748       180  SOPE      C11           -19.4828832982      -35.2122396978      -21.7971136047  MEMB      180             0.0000000000
     20749       180  SOPE      H11A          -19.8365811754      -36.2651503101      -21.8215673130  MEMB      180             0.0000000000
     20750       180  SOPE      H11B          -20.2842587049      -34.6279587061      -21.2963801478  MEMB      180             0.0000000000
     20751       180  SOPE      P             -17.9210401516      -34.0309694881      -19.8960668881  MEMB      180             0.0000000000
     20752       180  SOPE      O13           -18.7761344110      -32.8066374609      -19.9679287907  MEMB      180             0.0000000000
     20753       180  SOPE      O14           -16.4957033033      -33.8175302243      -20.2399327336  MEMB      180             0.0000000000
     20754       180  SOPE      O12           -18.3562571405      -35.1965511704      -20.9911255368  MEMB      180             0.0000000000
     20755       180  SOPE      O11           -17.9945555116      -34.8456837375      -18.5310000537  MEMB      180             0.0000000000
     20756       180  SOPE      C1            -19.1967922295      -35.5495525638      -18.1678310124  MEMB      180             0.0000000000
     20757       180  SOPE      HA            -19.2574528082      -36.4740056245      -18.7810419115  MEMB      180             0.0000000000
     20758       180  SOPE      HB            -20.0926085545      -34.9148237109      -18.3379877819  MEMB      180             0.0000000000
     20759       180  SOPE      C2            -19.2348799874      -35.9229337810      -16.6197575700  MEMB      180             0.0000000000
     20760       180  SOPE      HS            -19.7693966299      -35.1197134635      -16.0688943512  MEMB      180             0.0000000000
     20761       180  SOPE      O21           -18.0212888195      -36.2703103838      -15.9012041358  MEMB      180             0.0000000000
     20762       180  SOPE      C21           -17.1946897878      -35.2583107201      -15.6618494371  MEMB      180             0.0000000000
     20763       180  SOPE      O22           -17.4482713315      -34.1143979183      -15.8960536483  MEMB      180             0.0000000000
     20764       180  SOPE      C22           -15.8944161902      -35.6988381419      -15.1265944521  MEMB      180             0.0000000000
     20765       180  SOPE      H2R           -15.1037748525      -35.5628186144      -15.8951684768  MEMB      180             0.0000000000
     20766       180  SOPE      H2S           -15.9248055155      -36.7997871077      -14.9806185578  MEMB      180             0.0000000000
     20767       180  SOPE      C3            -20.1911533467      -37.1121146105      -16.4069189426  MEMB      180             0.0000000000
     20768       180  SOPE      HX            -19.7469782902      -37.8941840250      -17.0591435123  MEMB      180             0.0000000000
     20769       180  SOPE      HY            -21.1838388432      -36.8169792140      -16.8091522518  MEMB      180             0.0000000000
     20770       180  SOPE      O31           -20.2001323119      -37.6643553076      -15.0903749748  MEMB      180             0.0000000000
     20771       180  SOPE      C31           -21.0906343124      -37.0795486434      -14.3119647394  MEMB      180             0.0000000000
     20772       180  SOPE      O32           -21.8658990858      -36.1466587146      -14.5972451975  MEMB      180             0.0000000000
     20773       180  SOPE      C32           -20.8632051333      -37.6705220368      -12.8788014202  MEMB      180             0.0000000000
     20774       180  SOPE      H2X           -20.0562239399      -37.0718532456      -12.4047787912  MEMB      180             0.0000000000
     20775       180  SOPE      H2Y           -20.4873575452      -38.7018606662      -13.0502658903  MEMB      180             0.0000000000
     20776       180  SOPE      C23           -15.3889383033      -35.1027935381      -13.7771111856  MEMB      180             0.0000000000
     20777       180  SOPE      H3R           -15.9112799359      -34.1431710513      -13.5756046586  MEMB      180             0.0000000000
     20778       180  SOPE      H3S           -14.3723422284      -34.7546462168      -14.0593296354  MEMB      180             0.0000000000
     20779       180  SOPE      C24           -15.3867653455      -36.1004300877      -12.7155055246  MEMB      180             0.0000000000
     20780       180  SOPE      H4R           -14.8897111781      -37.0195842327      -13.0928833120  MEMB      180             0.0000000000
     20781       180  SOPE      H4S           -14.8612145862      -35.5615133219      -11.8983848159  MEMB      180             0.0000000000
     20782       180  SOPE      C25           -16.8399841871      -36.6285157697      -12.2189195435  MEMB      180             0.0000000000
     20783       180  SOPE      H5R           -17.4066897187      -36.9902275809      -13.1034139660  MEMB      180             0.0000000000
     20784       180  SOPE      H5S           -16.7231049553      -37.4278938231      -11.4562564971  MEMB      180             0.0000000000
     20785       180  SOPE      C26           -17.6420227467      -35.5759688043      -11.4852336825  MEMB      180             0.0000000000
     20786       180  SOPE      H6R           -18.3985423756      -36.1134771176      -10.8744272954  MEMB      180             0.0000000000
     20787       180  SOPE      H6S           -16.9921955083      -34.9627857771      -10.8248911816  MEMB      180             0.0000000000
     20788       180  SOPE      C27           -18.4915751242      -34.6937323831      -12.4216665966  MEMB      180             0.0000000000
     20789       180  SOPE      H7R           -17.8781094620      -33.9724294949      -13.0027882672  MEMB      180             0.0000000000
     20790       180  SOPE      H7S           -18.8528660779      -35.4941232049      -13.1022279524  MEMB      180             0.0000000000
     20791       180  SOPE      C28           -19.7351060782      -34.1513188576      -11.8265406572  MEMB      180             0.0000000000
     20792       180  SOPE      H8R           -20.2852871463      -33.7821966109      -12.7183757488  MEMB      180             0.0000000000
     20793       180  SOPE      H8S           -20.4274158977      -34.8591519256      -11.3225554851  MEMB      180             0.0000000000
     20794       180  SOPE      C29           -19.4328608483      -32.8047128780      -11.1665716644  MEMB      180             0.0000000000
     20795       180  SOPE      H91           -19.2501254583      -31.9533757797      -11.8387566970  MEMB      180             0.0000000000
     20796       180  SOPE      C210          -19.3382994623      -32.4667869200       -9.8277659521  MEMB      180             0.0000000000
     20797       180  SOPE      H101          -19.1610863981      -31.4195677521       -9.5415358225  MEMB      180             0.0000000000
     20798       180  SOPE      C211          -19.5168415653      -33.4319661941       -8.7141024245  MEMB      180             0.0000000000
     20799       180  SOPE      H11R          -19.9691849762      -34.4199360349       -8.9456672029  MEMB      180             0.0000000000
     20800       180  SOPE      H11S          -20.3242065491      -33.0638026890       -8.0455685114  MEMB      180             0.0000000000
     20801       180  SOPE      C212          -18.1987252084      -33.7048611401       -7.9991535730  MEMB      180             0.0000000000
     20802       180  SOPE      H12R          -17.3684751268      -32.9824017060       -8.1510037243  MEMB      180             0.0000000000
     20803       180  SOPE      H12S          -17.7908456113      -34.5803727628       -8.5481841904  MEMB      180             0.0000000000
     20804       180  SOPE      C213          -18.2778428424      -34.2142963419       -6.5506422230  MEMB      180             0.0000000000
     20805       180  SOPE      H13R          -18.6084808055      -33.4421097889       -5.8235052593  MEMB      180             0.0000000000
     20806       180  SOPE      H13S          -17.2688205929      -34.5272398335       -6.2067503433  MEMB      180             0.0000000000
     20807       180  SOPE      C214          -19.1263534431      -35.4866872692       -6.5684619608  MEMB      180             0.0000000000
     20808       180  SOPE      H14R          -19.1179924690      -35.9542174266       -7.5762654105  MEMB      180             0.0000000000
     20809       180  SOPE      H14S          -20.1896198585      -35.1766117937       -6.4810622176  MEMB      180             0.0000000000
     20810       180  SOPE      C215          -18.6681787858      -36.4606452971       -5.5329101134  MEMB      180             0.0000000000
     20811       180  SOPE      H15R          -17.6130493683      -36.7505502761       -5.7252068471  MEMB      180             0.0000000000
     20812       180  SOPE      H15S          -19.3112213635      -37.3429580600       -5.7386807659  MEMB      180             0.0000000000
     20813       180  SOPE      C216          -18.7686779246      -36.1145619364       -3.9748380786  MEMB      180             0.0000000000
     20814       180  SOPE      H16R          -18.1226513871      -35.2139794143       -3.8978837515  MEMB      180             0.0000000000
     20815       180  SOPE      H16S          -18.2304651223      -36.8973029115       -3.3986757121  MEMB      180             0.0000000000
     20816       180  SOPE      C217          -20.1201276459      -35.6990098267       -3.4196996767  MEMB      180             0.0000000000
     20817       180  SOPE      H17R          -20.7132806070      -36.6330116162       -3.3190481757  MEMB      180             0.0000000000
     20818       180  SOPE      H17S          -20.6360706651      -34.9268170277       -4.0294894222  MEMB      180             0.0000000000
     20819       180  SOPE      C218          -20.1437600103      -35.1073016725       -1.9995067567  MEMB      180             0.0000000000
     20820       180  SOPE      H18R          -21.1144336600      -34.6581501234       -1.6988790961  MEMB      180             0.0000000000
     20821       180  SOPE      H18S          -19.4191144095      -34.2701113090       -1.9082806453  MEMB      180             0.0000000000
     20822       180  SOPE      H18T          -19.9345250422      -35.9141902221       -1.2650180556  MEMB      180             0.0000000000
     20823       180  SOPE      C33           -22.1417460460      -37.6181726824      -12.0745001251  MEMB      180             0.0000000000
     20824       180  SOPE      H3X           -23.0423402988      -37.9940230347      -12.6055238876  MEMB      180             0.0000000000
     20825       180  SOPE      H3Y           -22.3182887908      -36.5673093933      -11.7601110975  MEMB      180             0.0000000000
     20826       180  SOPE      C34           -22.1660457295      -38.4098061707      -10.7907365994  MEMB      180             0.0000000000
     20827       180  SOPE      H4X           -21.9414291671      -39.4733022716      -11.0206152926  MEMB      180             0.0000000000
     20828       180  SOPE      H4Y           -23.1105701050      -38.2453118956      -10.2293668590  MEMB      180             0.0000000000
     20829       180  SOPE      C35           -21.1427849159      -37.7938588164       -9.8398716486  MEMB      180             0.0000000000
     20830       180  SOPE      H5X           -21.5508140641      -36.8035994837       -9.5445417741  MEMB      180             0.0000000000
     20831       180  SOPE      H5Y           -20.1189169701      -37.6915866537      -10.2588657771  MEMB      180             0.0000000000
     20832       180  SOPE      C36           -21.0466227611      -38.6850160256       -8.6289117946  MEMB      180             0.0000000000
     20833       180  SOPE      H6X           -21.9231660292      -39.3667117032       -8.6647426928  MEMB      180             0.0000000000
     20834       180  SOPE      H6Y           -20.9245667810      -38.1483390918       -7.6638206531  MEMB      180             0.0000000000
     20835       180  SOPE      C37           -19.7962797731      -39.6000633480       -8.5685090886  MEMB      180             0.0000000000
     20836       180  SOPE      H7X           -19.8161888447      -40.1598735249       -9.5279556204  MEMB      180             0.0000000000
     20837       180  SOPE      H7Y           -20.0417020008      -40.3275293989       -7.7654635402  MEMB      180             0.0000000000
     20838       180  SOPE      C38           -18.3597687119      -39.0237418273       -8.3934806215  MEMB      180             0.0000000000
     20839       180  SOPE      H8X           -18.2214667556      -38.6565151272       -7.3540873630  MEMB      180             0.0000000000
     20840       180  SOPE      H8Y           -18.1641627191      -38.3297963981       -9.2387607912  MEMB      180             0.0000000000
     20841       180  SOPE      C39           -17.2335165568      -40.0193897226       -8.7578566357  MEMB      180             0.0000000000
     20842       180  SOPE      H9X           -17.2883819875      -40.3164369377       -9.8270030004  MEMB      180             0.0000000000
     20843       180  SOPE      H9Y           -17.3766466640      -40.8719771419       -8.0600532725  MEMB      180             0.0000000000
     20844       180  SOPE      C310          -15.8062372260      -39.4923047807       -8.6092285178  MEMB      180             0.0000000000
     20845       180  SOPE      H10X          -15.6704426448      -38.6212037069       -9.2852943238  MEMB      180             0.0000000000
     20846       180  SOPE      H10Y          -15.1576522516      -40.3707261094       -8.8142534207  MEMB      180             0.0000000000
     20847       180  SOPE      C311          -15.4164870614      -39.0123815690       -7.1644259745  MEMB      180             0.0000000000
     20848       180  SOPE      H11X          -15.7086510659      -39.8526239091       -6.4988780170  MEMB      180             0.0000000000
     20849       180  SOPE      H11Y          -16.0495857441      -38.1210327465       -6.9669304894  MEMB      180             0.0000000000
     20850       180  SOPE      C312          -13.9100102467      -38.7341997225       -6.9427573053  MEMB      180             0.0000000000
     20851       180  SOPE      H12X          -13.6141920869      -37.9960859456       -7.7186443168  MEMB      180             0.0000000000
     20852       180  SOPE      H12Y          -13.3716019816      -39.6856548733       -7.1406729026  MEMB      180             0.0000000000
     20853       180  SOPE      C313          -13.5862759407      -38.3966613406       -5.4970842200  MEMB      180             0.0000000000
     20854       180  SOPE      H13X          -12.4971112879      -38.6156477224       -5.5064027341  MEMB      180             0.0000000000
     20855       180  SOPE      H13Y          -14.1802795792      -39.0663241499       -4.8390325450  MEMB      180             0.0000000000
     20856       180  SOPE      C314          -13.9841173430      -36.9771387925       -5.0039636345  MEMB      180             0.0000000000
     20857       180  SOPE      H14X          -15.0771072343      -36.7780693653       -4.9958833091  MEMB      180             0.0000000000
     20858       180  SOPE      H14Y          -13.5951803205      -36.2633063627       -5.7612577179  MEMB      180             0.0000000000
     20859       180  SOPE      C315          -13.4502577221      -36.7420313561       -3.5447069697  MEMB      180             0.0000000000
     20860       180  SOPE      H15X          -12.3473199187      -36.6157823273       -3.5884197697  MEMB      180             0.0000000000
     20861       180  SOPE      H15Y          -13.7368883498      -37.6495928891       -2.9715598352  MEMB      180             0.0000000000
     20862       180  SOPE      C316          -14.0843489177      -35.5872518916       -2.7409981246  MEMB      180             0.0000000000
     20863       180  SOPE      H16X          -13.5357853035      -35.5998247259       -1.7749542845  MEMB      180             0.0000000000
     20864       180  SOPE      H16Y          -15.1176320542      -35.9529041563       -2.5594922686  MEMB      180             0.0000000000
     20865       180  SOPE      C317          -14.0674136644      -34.1714096148       -3.2736554899  MEMB      180             0.0000000000
     20866       180  SOPE      H17X          -14.5017824003      -34.1349706438       -4.2955744723  MEMB      180             0.0000000000
     20867       180  SOPE      H17Y          -12.9926124678      -33.8942177618       -3.3214874774  MEMB      180             0.0000000000
     20868       180  SOPE      C318          -14.7511382647      -33.1255759425       -2.2778084335  MEMB      180             0.0000000000
     20869       180  SOPE      H18X          -14.1628852193      -33.0145341384       -1.3418870642  MEMB      180             0.0000000000
     20870       180  SOPE      H18Y          -15.7784559492      -33.4057607423       -1.9608920064  MEMB      180             0.0000000000
     20871       180  SOPE      H18Z          -14.7050343454      -32.1067104657       -2.7183860269  MEMB      180             0.0000000000
     20872       181  SAPC      N              18.5543347473       36.2244051102      -19.6654985309  MEMB      181             0.0000000000
     20873       181  SAPC      C12            17.2717411631       35.5357346724      -19.2741201741  MEMB      181             0.0000000000
     20874       181  SAPC      H12A           16.6840260471       36.1682013508      -18.6252929083  MEMB      181             0.0000000000
     20875       181  SAPC      H12B           17.5246025345       34.6893042870      -18.6528175587  MEMB      181             0.0000000000
     20876       181  SAPC      C13            18.1765288333       37.6218772129      -20.1759376640  MEMB      181             0.0000000000
     20877       181  SAPC      H13A           17.4774761382       37.5405134378      -20.9951476676  MEMB      181             0.0000000000
     20878       181  SAPC      H13B           17.8172759154       38.2804519505      -19.3990100114  MEMB      181             0.0000000000
     20879       181  SAPC      H13C           19.0467001448       38.1690407356      -20.5073201304  MEMB      181             0.0000000000
     20880       181  SAPC      C14            19.4696641825       36.3219521069      -18.4957386794  MEMB      181             0.0000000000
     20881       181  SAPC      H14A           19.0215264725       36.9818682839      -17.7676705790  MEMB      181             0.0000000000
     20882       181  SAPC      H14B           19.7589609206       35.3379369623      -18.1574762579  MEMB      181             0.0000000000
     20883       181  SAPC      H14C           20.3890339814       36.8121919349      -18.7800342565  MEMB      181             0.0000000000
     20884       181  SAPC      C15            19.1440284174       35.4002718310      -20.8169839280  MEMB      181             0.0000000000
     20885       181  SAPC      H15A           18.3410475275       35.0613804044      -21.4547724695  MEMB      181             0.0000000000
     20886       181  SAPC      H15B           19.8197320491       36.0329076426      -21.3733977367  MEMB      181             0.0000000000
     20887       181  SAPC      H15C           19.6389079198       34.5270771323      -20.4182043047  MEMB      181             0.0000000000
     20888       181  SAPC      C11            16.2228891668       35.1026963202      -20.2857089402  MEMB      181             0.0000000000
     20889       181  SAPC      H11A           15.5000345880       34.4374759134      -19.7667830658  MEMB      181             0.0000000000
     20890       181  SAPC      H11B           16.6577964077       34.4672239853      -21.0865533280  MEMB      181             0.0000000000
     20891       181  SAPC      P              14.2989713168       36.9702839157      -20.3205125521  MEMB      181             0.0000000000
     20892       181  SAPC      O13            14.1010715419       38.3003348484      -20.9190758674  MEMB      181             0.0000000000
     20893       181  SAPC      O14            13.2165073786       36.0200023325      -20.2996038984  MEMB      181             0.0000000000
     20894       181  SAPC      O12            15.5961640113       36.2365953263      -20.9324934436  MEMB      181             0.0000000000
     20895       181  SAPC      O11            14.6312535406       37.1617131200      -18.8143263183  MEMB      181             0.0000000000
     20896       181  SAPC      C1             15.2151938696       38.4365790309      -18.4529274503  MEMB      181             0.0000000000
     20897       181  SAPC      HA             15.9139958248       38.9075292722      -19.1769459259  MEMB      181             0.0000000000
     20898       181  SAPC      HB             14.2925593395       39.0552277455      -18.4344804415  MEMB      181             0.0000000000
     20899       181  SAPC      C2             15.8639365580       38.3435073475      -17.0454800615  MEMB      181             0.0000000000
     20900       181  SAPC      HS             16.8820955095       37.9531671009      -17.2583366255  MEMB      181             0.0000000000
     20901       181  SAPC      O21            15.1457271655       37.5632977881      -16.1144451380  MEMB      181             0.0000000000
     20902       181  SAPC      C21            15.6603467297       36.3303068575      -15.7725267325  MEMB      181             0.0000000000
     20903       181  SAPC      O22            16.7512111603       35.9036119265      -16.1394483221  MEMB      181             0.0000000000
     20904       181  SAPC      C22            14.6382762956       35.7441887529      -14.9471934605  MEMB      181             0.0000000000
     20905       181  SAPC      H2R            14.7768963559       36.0478146765      -13.8875159229  MEMB      181             0.0000000000
     20906       181  SAPC      H2S            13.6406515854       36.1533224764      -15.2149169462  MEMB      181             0.0000000000
     20907       181  SAPC      C3             16.1361467266       39.7669267644      -16.3908278975  MEMB      181             0.0000000000
     20908       181  SAPC      HX             15.1234851609       40.1976473026      -16.5435277321  MEMB      181             0.0000000000
     20909       181  SAPC      HY             16.9415800412       40.4055736856      -16.8124060426  MEMB      181             0.0000000000
     20910       181  SAPC      O31            16.4080879222       39.6003744836      -15.0001676684  MEMB      181             0.0000000000
     20911       181  SAPC      C31            17.5974238857       39.3244463641      -14.6124794943  MEMB      181             0.0000000000
     20912       181  SAPC      O32            18.5736094849       39.1149368167      -15.3074050999  MEMB      181             0.0000000000
     20913       181  SAPC      C32            17.5146831504       39.2699277697      -13.1062473349  MEMB      181             0.0000000000
     20914       181  SAPC      H2X            16.6924875341       38.5734914127      -12.8355230487  MEMB      181             0.0000000000
     20915       181  SAPC      H2Y            17.4303046637       40.2852683750      -12.6632073273  MEMB      181             0.0000000000
     20916       181  SAPC      C23            14.8121167123       34.2078849697      -15.0012661103  MEMB      181             0.0000000000
     20917       181  SAPC      H3R            15.3336809672       34.0586827632      -15.9708180176  MEMB      181             0.0000000000
     20918       181  SAPC      H3S            13.8626597478       33.6432006211      -15.1195207592  MEMB      181             0.0000000000
     20919       181  SAPC      C24            15.6915615775       33.5663561880      -13.8582824805  MEMB      181             0.0000000000
     20920       181  SAPC      H4R            16.5679447398       34.2323128263      -13.7073686717  MEMB      181             0.0000000000
     20921       181  SAPC      H4S            16.0921956860       32.6156741591      -14.2706132634  MEMB      181             0.0000000000
     20922       181  SAPC      C25            14.9817862554       33.1714144466      -12.5590132031  MEMB      181             0.0000000000
     20923       181  SAPC      H5R            14.4589308257       32.2037793319      -12.5415811779  MEMB      181             0.0000000000
     20924       181  SAPC      C26            15.0094683075       33.7936308537      -11.3460140923  MEMB      181             0.0000000000
     20925       181  SAPC      H6R            14.4531162034       33.3924920844      -10.4860375572  MEMB      181             0.0000000000
     20926       181  SAPC      C27            15.7438925416       35.0589991577      -11.1035956087  MEMB      181             0.0000000000
     20927       181  SAPC      H7R            15.5816776795       35.7540947089      -11.9549768565  MEMB      181             0.0000000000
     20928       181  SAPC      H7S            16.8061581763       34.7475900436      -11.0090586703  MEMB      181             0.0000000000
     20929       181  SAPC      C28            15.2608017246       35.7938842790       -9.9036090982  MEMB      181             0.0000000000
     20930       181  SAPC      H8R            14.7192660890       36.7323121166      -10.0935898111  MEMB      181             0.0000000000
     20931       181  SAPC      C29            15.5238602909       35.4908415347       -8.5822157760  MEMB      181             0.0000000000
     20932       181  SAPC      H9R            15.1182085436       36.2116918442       -7.8570801989  MEMB      181             0.0000000000
     20933       181  SAPC      C210           16.2862341397       34.2738726396       -8.0408668379  MEMB      181             0.0000000000
     20934       181  SAPC      H10R           16.3028130791       33.5233928111       -8.8599064068  MEMB      181             0.0000000000
     20935       181  SAPC      H10S           15.6997459477       33.7140454733       -7.2812969833  MEMB      181             0.0000000000
     20936       181  SAPC      C211           17.7177135500       34.7027002686       -7.6615859278  MEMB      181             0.0000000000
     20937       181  SAPC      H11R           18.2531320778       35.1623153785       -8.5054349855  MEMB      181             0.0000000000
     20938       181  SAPC      C212           18.3526476462       34.5595134553       -6.4593862678  MEMB      181             0.0000000000
     20939       181  SAPC      H12R           19.3793827472       34.9394804561       -6.3524265145  MEMB      181             0.0000000000
     20940       181  SAPC      C213           17.9748794410       33.9745447193       -5.1079369307  MEMB      181             0.0000000000
     20941       181  SAPC      H13R           18.5272353178       33.0325551613       -4.9032925384  MEMB      181             0.0000000000
     20942       181  SAPC      H13S           16.9152083533       33.6445812203       -5.1583604708  MEMB      181             0.0000000000
     20943       181  SAPC      C214           17.8174595033       35.0312515444       -4.0285369960  MEMB      181             0.0000000000
     20944       181  SAPC      H14R           17.6154850284       36.0433622932       -4.4091129473  MEMB      181             0.0000000000
     20945       181  SAPC      C215           17.9790788260       34.8669040532       -2.7540086200  MEMB      181             0.0000000000
     20946       181  SAPC      H15R           17.8257218388       35.7729928926       -2.1494554409  MEMB      181             0.0000000000
     20947       181  SAPC      C216           18.2473812413       33.5745424011       -2.0468191574  MEMB      181             0.0000000000
     20948       181  SAPC      H16R           18.7805866089       32.8982254215       -2.7486809991  MEMB      181             0.0000000000
     20949       181  SAPC      H16S           17.3294859644       33.0443090191       -1.7141912259  MEMB      181             0.0000000000
     20950       181  SAPC      C217           19.1560199129       33.8177842232       -0.8907846138  MEMB      181             0.0000000000
     20951       181  SAPC      H17R           20.1216729403       34.2886083973       -1.1739098481  MEMB      181             0.0000000000
     20952       181  SAPC      H17S           19.3347176137       32.8511492700       -0.3730923897  MEMB      181             0.0000000000
     20953       181  SAPC      C218           18.7182274756       34.8596355044        0.1968309697  MEMB      181             0.0000000000
     20954       181  SAPC      H18R           18.3030328217       35.8503456641       -0.0867672026  MEMB      181             0.0000000000
     20955       181  SAPC      H18S           19.6329813910       34.9276646444        0.8236629162  MEMB      181             0.0000000000
     20956       181  SAPC      C219           17.7545639486       34.1409231257        1.2012398522  MEMB      181             0.0000000000
     20957       181  SAPC      H19R           18.0736305471       33.0849493322        1.3332888317  MEMB      181             0.0000000000
     20958       181  SAPC      H19S           16.7998646619       34.0401250918        0.6420351401  MEMB      181             0.0000000000
     20959       181  SAPC      C220           17.5170505516       34.8234208507        2.5328051172  MEMB      181             0.0000000000
     20960       181  SAPC      H20R           16.9346780529       35.7538766411        2.3612973914  MEMB      181             0.0000000000
     20961       181  SAPC      H20S           18.4465670585       35.0509656453        3.0972011281  MEMB      181             0.0000000000
     20962       181  SAPC      H20T           16.8574310922       34.1901543078        3.1638332287  MEMB      181             0.0000000000
     20963       181  SAPC      C33            18.8197107645       38.6453979988      -12.5638780617  MEMB      181             0.0000000000
     20964       181  SAPC      H3X            19.7044472542       39.2726077668      -12.8050628147  MEMB      181             0.0000000000
     20965       181  SAPC      H3Y            18.9806064383       37.6264715352      -12.9764586340  MEMB      181             0.0000000000
     20966       181  SAPC      C34            18.9565681648       38.7866793685      -11.0102555984  MEMB      181             0.0000000000
     20967       181  SAPC      H4X            18.9690978779       39.8738231571      -10.7816023826  MEMB      181             0.0000000000
     20968       181  SAPC      H4Y            19.9338614349       38.4557471216      -10.5983061350  MEMB      181             0.0000000000
     20969       181  SAPC      C35            17.7642037509       38.0921741177      -10.2716260489  MEMB      181             0.0000000000
     20970       181  SAPC      H5X            18.1504637115       37.0536290608      -10.1907037643  MEMB      181             0.0000000000
     20971       181  SAPC      H5Y            16.7707234999       38.1267407357      -10.7677339759  MEMB      181             0.0000000000
     20972       181  SAPC      C36            17.7359987811       38.6557654137       -8.8677139496  MEMB      181             0.0000000000
     20973       181  SAPC      H6X            18.6888622954       39.1384851330       -8.5621743106  MEMB      181             0.0000000000
     20974       181  SAPC      H6Y            17.6658949942       37.7153941446       -8.2802541973  MEMB      181             0.0000000000
     20975       181  SAPC      C37            16.4773333434       39.4318544597       -8.5554386181  MEMB      181             0.0000000000
     20976       181  SAPC      H7X            15.5928287257       38.8768040173       -8.9347685482  MEMB      181             0.0000000000
     20977       181  SAPC      H7Y            16.5309411264       40.3134760152       -9.2293750999  MEMB      181             0.0000000000
     20978       181  SAPC      C38            16.2860542460       39.7986057703       -7.0490563035  MEMB      181             0.0000000000
     20979       181  SAPC      H8X            15.5838881112       40.6593108156       -7.0273565422  MEMB      181             0.0000000000
     20980       181  SAPC      H8Y            17.2038957599       40.0961586635       -6.4982848303  MEMB      181             0.0000000000
     20981       181  SAPC      C39            15.7127002255       38.5294424727       -6.3510989146  MEMB      181             0.0000000000
     20982       181  SAPC      H9X            16.4487553697       37.6977932397       -6.3811548301  MEMB      181             0.0000000000
     20983       181  SAPC      H9Y            14.8216542614       38.2022319248       -6.9284129653  MEMB      181             0.0000000000
     20984       181  SAPC      C310           15.3387312639       38.8254703300       -4.9060207493  MEMB      181             0.0000000000
     20985       181  SAPC      H10X           14.6804481068       39.7129358257       -5.0217326537  MEMB      181             0.0000000000
     20986       181  SAPC      H10Y           16.2444431069       39.0756318507       -4.3132082242  MEMB      181             0.0000000000
     20987       181  SAPC      C311           14.4362307873       37.8297402013       -4.1653478719  MEMB      181             0.0000000000
     20988       181  SAPC      H11X           14.8235402850       36.8035203840       -3.9887548281  MEMB      181             0.0000000000
     20989       181  SAPC      H11Y           13.5121430131       37.8117703026       -4.7818381441  MEMB      181             0.0000000000
     20990       181  SAPC      C312           13.9909137040       38.4188938512       -2.7640604962  MEMB      181             0.0000000000
     20991       181  SAPC      H12X           13.1676666178       37.7587598029       -2.4164863926  MEMB      181             0.0000000000
     20992       181  SAPC      H12Y           13.5745953197       39.4367805056       -2.9218796788  MEMB      181             0.0000000000
     20993       181  SAPC      C313           15.0826788435       38.2306757127       -1.8012810066  MEMB      181             0.0000000000
     20994       181  SAPC      H13X           15.8850840743       38.9974055114       -1.8521970751  MEMB      181             0.0000000000
     20995       181  SAPC      H13Y           15.5246613938       37.2195140929       -1.9298297595  MEMB      181             0.0000000000
     20996       181  SAPC      C314           14.6048209244       38.1462630984       -0.3245354019  MEMB      181             0.0000000000
     20997       181  SAPC      H14X           14.1589504277       37.1299102261       -0.2740645490  MEMB      181             0.0000000000
     20998       181  SAPC      H14Y           13.7841973515       38.8520913731       -0.0741263547  MEMB      181             0.0000000000
     20999       181  SAPC      C315           15.7138815222       38.3386675868        0.7124376222  MEMB      181             0.0000000000
     21000       181  SAPC      H15X           16.2682277692       37.3768167057        0.6692623680  MEMB      181             0.0000000000
     21001       181  SAPC      H15Y           15.1614810082       38.2284815132        1.6700562969  MEMB      181             0.0000000000
     21002       181  SAPC      C316           16.6031295551       39.5898874801        0.8129383621  MEMB      181             0.0000000000
     21003       181  SAPC      H16X           16.1447155341       40.3039055734        1.5301250642  MEMB      181             0.0000000000
     21004       181  SAPC      H16Y           16.8841804664       40.0251234096       -0.1698639792  MEMB      181             0.0000000000
     21005       181  SAPC      C317           17.9835417680       39.4010086787        1.4966461073  MEMB      181             0.0000000000
     21006       181  SAPC      H17X           18.6741511490       38.8532625841        0.8203665976  MEMB      181             0.0000000000
     21007       181  SAPC      H17Y           17.7118518401       38.8531096934        2.4241762090  MEMB      181             0.0000000000
     21008       181  SAPC      C318           18.7653517684       40.7351399752        1.7600967170  MEMB      181             0.0000000000
     21009       181  SAPC      H18X           18.9321955232       41.5197535055        0.9914174682  MEMB      181             0.0000000000
     21010       181  SAPC      H18Y           19.7826400089       40.4571843900        2.1096474473  MEMB      181             0.0000000000
     21011       181  SAPC      H18Z           18.3151296104       41.3590869747        2.5615390152  MEMB      181             0.0000000000
     21012       182  CHL1      C3            -35.0566447967      -19.4740851023      -17.3414100000  MEMB      182             0.0000000000
     21013       182  CHL1      H3            -34.4912227784      -18.5177330346      -17.3413600000  MEMB      182             0.0000000000
     21014       182  CHL1      O3            -35.4649404033      -19.7469640977      -18.6585900000  MEMB      182             0.0000000000
     21015       182  CHL1      H3'           -35.3969969144      -18.8605562948      -19.0209000000  MEMB      182             0.0000000000
     21016       182  CHL1      C4            -34.1407440629      -20.5995639592      -16.8409600000  MEMB      182             0.0000000000
     21017       182  CHL1      H4A           -34.5771129217      -21.6120996270      -16.9775700000  MEMB      182             0.0000000000
     21018       182  CHL1      H4B           -33.2549229475      -20.6770602068      -17.5070300000  MEMB      182             0.0000000000
     21019       182  CHL1      C5            -33.7397250040      -20.4242336694      -15.3679700000  MEMB      182             0.0000000000
     21020       182  CHL1      C6            -32.4561113085      -20.3942484852      -14.8640800000  MEMB      182             0.0000000000
     21021       182  CHL1      H6            -31.5681115158      -20.4837714474      -15.5070800000  MEMB      182             0.0000000000
     21022       182  CHL1      C7            -32.0714785780      -20.1388199136      -13.4674900000  MEMB      182             0.0000000000
     21023       182  CHL1      H7A           -31.1918504291      -20.7147076038      -13.1084300000  MEMB      182             0.0000000000
     21024       182  CHL1      H7B           -31.8732434537      -19.0485580093      -13.5471800000  MEMB      182             0.0000000000
     21025       182  CHL1      C8            -33.2127132368      -20.5133241752      -12.5020300000  MEMB      182             0.0000000000
     21026       182  CHL1      H8            -33.3973285842      -21.6040249112      -12.6050200000  MEMB      182             0.0000000000
     21027       182  CHL1      C14           -32.8970836066      -19.9555106947      -11.1595700000  MEMB      182             0.0000000000
     21028       182  CHL1      H14           -32.9510508247      -18.8514240662      -11.2709400000  MEMB      182             0.0000000000
     21029       182  CHL1      C15           -31.5647514584      -20.3522407407      -10.5272100000  MEMB      182             0.0000000000
     21030       182  CHL1      H15A          -31.2978612247      -21.4059189635      -10.7571100000  MEMB      182             0.0000000000
     21031       182  CHL1      H15B          -30.7524783648      -19.6888622983      -10.8939000000  MEMB      182             0.0000000000
     21032       182  CHL1      C16           -31.7438179684      -20.2667636332       -9.0494900000  MEMB      182             0.0000000000
     21033       182  CHL1      H16A          -31.6704338691      -21.3077233284       -8.6682500000  MEMB      182             0.0000000000
     21034       182  CHL1      H16B          -30.9537729883      -19.6373192779       -8.5869400000  MEMB      182             0.0000000000
     21035       182  CHL1      C17           -33.1932141458      -19.7237352822       -8.8470000000  MEMB      182             0.0000000000
     21036       182  CHL1      H17           -33.0998381034      -18.6217199343       -8.9526800000  MEMB      182             0.0000000000
     21037       182  CHL1      C13           -33.9573684444      -20.2168061239      -10.0553100000  MEMB      182             0.0000000000
     21038       182  CHL1      C18           -34.3381702288      -21.7038635159       -9.7851800000  MEMB      182             0.0000000000
     21039       182  CHL1      H18A          -33.4000491175      -22.2586086840       -9.5695100000  MEMB      182             0.0000000000
     21040       182  CHL1      H18B          -34.9444140952      -21.7392800518       -8.8548400000  MEMB      182             0.0000000000
     21041       182  CHL1      H18C          -34.8494353001      -22.2417221678      -10.6120000000  MEMB      182             0.0000000000
     21042       182  CHL1      C12           -35.2350544889      -19.4793571259      -10.5182000000  MEMB      182             0.0000000000
     21043       182  CHL1      H12A          -36.0716916763      -19.7415731032       -9.8358600000  MEMB      182             0.0000000000
     21044       182  CHL1      H12B          -35.1370038844      -18.3735376002      -10.5613200000  MEMB      182             0.0000000000
     21045       182  CHL1      C11           -35.7068370479      -19.9166286448      -11.9555300000  MEMB      182             0.0000000000
     21046       182  CHL1      H11A          -36.2126352752      -20.9042953664      -11.9006100000  MEMB      182             0.0000000000
     21047       182  CHL1      H11B          -36.5681808770      -19.2687496540      -12.2251100000  MEMB      182             0.0000000000
     21048       182  CHL1      C9            -34.5154463511      -19.8686791233      -12.9634500000  MEMB      182             0.0000000000
     21049       182  CHL1      H9            -34.2976270265      -18.7817637397      -13.0376000000  MEMB      182             0.0000000000
     21050       182  CHL1      C10           -34.8855035428      -20.2809596830      -14.4351400000  MEMB      182             0.0000000000
     21051       182  CHL1      C19           -35.6086504146      -21.6986605470      -14.4544500000  MEMB      182             0.0000000000
     21052       182  CHL1      H19A          -34.7973752517      -22.4295786126      -14.2497400000  MEMB      182             0.0000000000
     21053       182  CHL1      H19B          -36.4492477050      -21.9202605350      -13.7626400000  MEMB      182             0.0000000000
     21054       182  CHL1      H19C          -36.0684326708      -21.8557771210      -15.4535600000  MEMB      182             0.0000000000
     21055       182  CHL1      C1            -35.9345675957      -19.2166676592      -14.9893800000  MEMB      182             0.0000000000
     21056       182  CHL1      H1A           -36.8689517973      -19.2344637852      -14.3886000000  MEMB      182             0.0000000000
     21057       182  CHL1      H1B           -35.5970622874      -18.1583010098      -14.9725700000  MEMB      182             0.0000000000
     21058       182  CHL1      C2            -36.2659231452      -19.4620139447      -16.4663700000  MEMB      182             0.0000000000
     21059       182  CHL1      H2A           -36.9597349010      -18.6703531856      -16.8216500000  MEMB      182             0.0000000000
     21060       182  CHL1      H2B           -36.8894887530      -20.3765851268      -16.5614200000  MEMB      182             0.0000000000
     21061       182  CHL1      C20           -33.8824485280      -20.0211302576       -7.4275700000  MEMB      182             0.0000000000
     21062       182  CHL1      H20           -33.9846534069      -21.1223844570       -7.3221100000  MEMB      182             0.0000000000
     21063       182  CHL1      C21           -35.1180761702      -19.2485984135       -7.2543900000  MEMB      182             0.0000000000
     21064       182  CHL1      H21A          -35.4076943770      -19.3173642068       -6.1840100000  MEMB      182             0.0000000000
     21065       182  CHL1      H21B          -35.9674384386      -19.5485089529       -7.9047300000  MEMB      182             0.0000000000
     21066       182  CHL1      H21C          -34.9364300396      -18.1689736088       -7.4434400000  MEMB      182             0.0000000000
     21067       182  CHL1      C22           -32.9272202864      -19.7018012165       -6.2046200000  MEMB      182             0.0000000000
     21068       182  CHL1      H22A          -31.9388568380      -20.1235960089       -6.4866400000  MEMB      182             0.0000000000
     21069       182  CHL1      H22B          -32.7033920403      -18.6186556821       -6.0996200000  MEMB      182             0.0000000000
     21070       182  CHL1      C23           -33.4064937610      -20.1732635263       -4.8141600000  MEMB      182             0.0000000000
     21071       182  CHL1      H23A          -34.1972721390      -20.9529539285       -4.8470700000  MEMB      182             0.0000000000
     21072       182  CHL1      H23B          -32.5607498123      -20.6883713039       -4.3104800000  MEMB      182             0.0000000000
     21073       182  CHL1      C24           -33.7774503135      -19.0444876138       -3.8285900000  MEMB      182             0.0000000000
     21074       182  CHL1      H24A          -32.8824145353      -18.4003228914       -3.6933900000  MEMB      182             0.0000000000
     21075       182  CHL1      H24B          -34.5624928824      -18.4242140827       -4.3115900000  MEMB      182             0.0000000000
     21076       182  CHL1      C25           -34.2034814633      -19.5975463852       -2.4538300000  MEMB      182             0.0000000000
     21077       182  CHL1      H25           -35.0647847523      -20.2286927141       -2.7606800000  MEMB      182             0.0000000000
     21078       182  CHL1      C26           -33.0951326084      -20.5510743158       -1.7816500000  MEMB      182             0.0000000000
     21079       182  CHL1      H26A          -33.0331169259      -21.4625595258       -2.4138400000  MEMB      182             0.0000000000
     21080       182  CHL1      H26B          -32.1061834803      -20.0463651616       -1.8212500000  MEMB      182             0.0000000000
     21081       182  CHL1      H26C          -33.4505938920      -20.9210388410       -0.7962000000  MEMB      182             0.0000000000
     21082       182  CHL1      C27           -34.5993234964      -18.5167820489       -1.4441700000  MEMB      182             0.0000000000
     21083       182  CHL1      H27A          -35.3450159695      -17.7793035792       -1.8107400000  MEMB      182             0.0000000000
     21084       182  CHL1      H27B          -34.9512486763      -18.8953488629       -0.4607300000  MEMB      182             0.0000000000
     21085       182  CHL1      H27C          -33.6434752513      -17.9605842315       -1.3377200000  MEMB      182             0.0000000000
     21086       183  SAPS      N              35.3797649988       17.8681178717      -19.5096174596  MEMB      183             0.0000000000
     21087       183  SAPS      HN1            35.1269028066       16.9143862180      -19.8383374823  MEMB      183             0.0000000000
     21088       183  SAPS      HN2            36.0454501830       17.8700684704      -18.7105808537  MEMB      183             0.0000000000
     21089       183  SAPS      HN3            34.4808598983       18.2747578481      -19.1806591806  MEMB      183             0.0000000000
     21090       183  SAPS      C12            35.8592049267       18.5585867875      -20.7229010402  MEMB      183             0.0000000000
     21091       183  SAPS      H12A           36.8914697758       18.2689550747      -20.8530648445  MEMB      183             0.0000000000
     21092       183  SAPS      C13            35.0108687371       18.1933519651      -21.9322387101  MEMB      183             0.0000000000
     21093       183  SAPS      O13A           34.0890577149       17.3712429008      -21.8213107744  MEMB      183             0.0000000000
     21094       183  SAPS      O13B           35.2518876941       18.7003189039      -23.1410464336  MEMB      183             0.0000000000
     21095       183  SAPS      C11            35.6401144825       20.0749716466      -20.5703534833  MEMB      183             0.0000000000
     21096       183  SAPS      H11A           34.5729080838       20.2954232432      -20.3540377346  MEMB      183             0.0000000000
     21097       183  SAPS      H11B           36.0121027980       20.5712816020      -21.4921029943  MEMB      183             0.0000000000
     21098       183  SAPS      P              35.9777709830       21.4823884265      -18.4445113521  MEMB      183             0.0000000000
     21099       183  SAPS      O13            37.0205817840       21.7563061287      -17.4033398023  MEMB      183             0.0000000000
     21100       183  SAPS      O14            35.2555457563       22.6659175898      -18.9957398131  MEMB      183             0.0000000000
     21101       183  SAPS      O12            36.6010276796       20.6573676928      -19.6227788436  MEMB      183             0.0000000000
     21102       183  SAPS      O11            34.9280985677       20.4209495368      -17.8361622885  MEMB      183             0.0000000000
     21103       183  SAPS      C1             33.8933496280       20.9856251225      -16.9874615026  MEMB      183             0.0000000000
     21104       183  SAPS      HA             33.6321926841       22.0452913991      -17.1953685668  MEMB      183             0.0000000000
     21105       183  SAPS      HB             32.9321889358       20.4417972147      -17.1088793664  MEMB      183             0.0000000000
     21106       183  SAPS      C2             34.1697152298       20.8225847686      -15.4559869684  MEMB      183             0.0000000000
     21107       183  SAPS      HS             33.2350986273       21.0672230534      -14.9073843726  MEMB      183             0.0000000000
     21108       183  SAPS      O21            35.3015054532       21.7535830946      -15.0727828078  MEMB      183             0.0000000000
     21109       183  SAPS      C21            34.9085117652       22.8849859057      -14.6365982518  MEMB      183             0.0000000000
     21110       183  SAPS      O22            33.7346382878       23.2408326286      -14.5690420773  MEMB      183             0.0000000000
     21111       183  SAPS      C22            36.0705130878       23.7325239678      -14.1873437035  MEMB      183             0.0000000000
     21112       183  SAPS      H2R            36.6289403167       24.0473918157      -15.0947236101  MEMB      183             0.0000000000
     21113       183  SAPS      H2S            35.7928181261       24.6976932538      -13.7123120784  MEMB      183             0.0000000000
     21114       183  SAPS      C3             34.5163893393       19.4303949754      -15.0219913336  MEMB      183             0.0000000000
     21115       183  SAPS      HX             35.0223489342       18.8877191270      -15.8489306225  MEMB      183             0.0000000000
     21116       183  SAPS      HY             33.5834178823       18.9116796873      -14.7140634758  MEMB      183             0.0000000000
     21117       183  SAPS      O31            35.4288820386       19.4394199640      -13.9245302913  MEMB      183             0.0000000000
     21118       183  SAPS      C31            35.9770522013       18.2658143367      -13.5876310105  MEMB      183             0.0000000000
     21119       183  SAPS      O32            35.6828958567       17.1602921958      -14.0692652919  MEMB      183             0.0000000000
     21120       183  SAPS      C32            37.0842701313       18.4506583854      -12.4833992627  MEMB      183             0.0000000000
     21121       183  SAPS      H2X            36.9753384311       19.4982064985      -12.1297074347  MEMB      183             0.0000000000
     21122       183  SAPS      H2Y            38.1053685472       18.3256542109      -12.9029857984  MEMB      183             0.0000000000
     21123       183  SAPS      C23            36.8939784619       22.9433894363      -13.2320831359  MEMB      183             0.0000000000
     21124       183  SAPS      H3R            37.8342609361       23.4150602605      -12.8747081988  MEMB      183             0.0000000000
     21125       183  SAPS      H3S            37.2841184954       22.0241241734      -13.7189741856  MEMB      183             0.0000000000
     21126       183  SAPS      C24            36.1742960459       22.5840549833      -11.8839999191  MEMB      183             0.0000000000
     21127       183  SAPS      H4R            35.5200546745       21.7095029368      -12.0875866099  MEMB      183             0.0000000000
     21128       183  SAPS      H4S            35.5797898357       23.5143058790      -11.7594338834  MEMB      183             0.0000000000
     21129       183  SAPS      C25            37.0130195002       22.1179701682      -10.6510262140  MEMB      183             0.0000000000
     21130       183  SAPS      H5R            37.9297109473       21.5414767721      -10.8442413130  MEMB      183             0.0000000000
     21131       183  SAPS      C26            36.7454131218       22.5931007873       -9.3896241308  MEMB      183             0.0000000000
     21132       183  SAPS      H6R            37.4814547407       22.4034928618       -8.5944564316  MEMB      183             0.0000000000
     21133       183  SAPS      C27            35.6270481798       23.5359081123       -8.9885910175  MEMB      183             0.0000000000
     21134       183  SAPS      H7R            34.8704099933       23.5685882920       -9.8014577488  MEMB      183             0.0000000000
     21135       183  SAPS      H7S            36.1142434125       24.5334240155       -9.0324510945  MEMB      183             0.0000000000
     21136       183  SAPS      C28            34.8090708703       23.2172127629       -7.7221867807  MEMB      183             0.0000000000
     21137       183  SAPS      H8R            33.7727951398       22.9846845708       -8.0086543776  MEMB      183             0.0000000000
     21138       183  SAPS      C29            35.2294629313       23.3428722944       -6.4735508953  MEMB      183             0.0000000000
     21139       183  SAPS      H9R            34.4245949276       23.3500448171       -5.7237940341  MEMB      183             0.0000000000
     21140       183  SAPS      C210           36.5750878977       23.8212395134       -5.9917666616  MEMB      183             0.0000000000
     21141       183  SAPS      H10R           36.5071044381       24.5042268014       -5.1181382207  MEMB      183             0.0000000000
     21142       183  SAPS      H10S           37.1539511649       24.3723894529       -6.7634353179  MEMB      183             0.0000000000
     21143       183  SAPS      C211           37.4068569930       22.6379848010       -5.5341910877  MEMB      183             0.0000000000
     21144       183  SAPS      H11R           37.5309844880       21.8074253302       -6.2446575325  MEMB      183             0.0000000000
     21145       183  SAPS      C212           37.9343502683       22.4659645688       -4.3248155871  MEMB      183             0.0000000000
     21146       183  SAPS      H12R           38.4930206287       21.5234911713       -4.2266760870  MEMB      183             0.0000000000
     21147       183  SAPS      C213           37.8734015150       23.3321049930       -3.1289630051  MEMB      183             0.0000000000
     21148       183  SAPS      H13R           37.0647824115       22.9040894670       -2.4986775591  MEMB      183             0.0000000000
     21149       183  SAPS      H13S           37.5657286319       24.3611976250       -3.4129116727  MEMB      183             0.0000000000
     21150       183  SAPS      C214           39.1488021464       23.3475330864       -2.3236108468  MEMB      183             0.0000000000
     21151       183  SAPS      H14R           39.8852746757       24.0546803926       -2.7329411634  MEMB      183             0.0000000000
     21152       183  SAPS      C215           39.4363349787       22.5471847474       -1.3371541149  MEMB      183             0.0000000000
     21153       183  SAPS      H15R           40.4117663416       22.6614689549       -0.8417023143  MEMB      183             0.0000000000
     21154       183  SAPS      C216           38.5917840568       21.4316242747       -0.7632403672  MEMB      183             0.0000000000
     21155       183  SAPS      H16R           39.1675149465       20.6114059254       -0.2835560159  MEMB      183             0.0000000000
     21156       183  SAPS      H16S           38.0850046240       20.8865016381       -1.5880644323  MEMB      183             0.0000000000
     21157       183  SAPS      C217           37.5132211784       21.9843453902        0.2012616946  MEMB      183             0.0000000000
     21158       183  SAPS      H17R           37.0780492623       22.9437413542       -0.1515916963  MEMB      183             0.0000000000
     21159       183  SAPS      H17S           38.0728065966       22.1303180201        1.1498801813  MEMB      183             0.0000000000
     21160       183  SAPS      C218           36.2790530170       21.0961229631        0.5828450509  MEMB      183             0.0000000000
     21161       183  SAPS      H18R           36.5463646831       20.2272007503        1.2214690633  MEMB      183             0.0000000000
     21162       183  SAPS      H18S           35.8864465481       20.7834688602       -0.4083295415  MEMB      183             0.0000000000
     21163       183  SAPS      C219           35.1632207119       21.9628699746        1.3012977835  MEMB      183             0.0000000000
     21164       183  SAPS      H19R           34.8617081054       22.8795311170        0.7507124375  MEMB      183             0.0000000000
     21165       183  SAPS      H19S           35.7078447405       22.2691427512        2.2199391951  MEMB      183             0.0000000000
     21166       183  SAPS      C220           33.8071174467       21.2880668929        1.6556664502  MEMB      183             0.0000000000
     21167       183  SAPS      H20R           34.0902090196       20.4255297148        2.2961427576  MEMB      183             0.0000000000
     21168       183  SAPS      H20S           33.3974244205       20.8648075507        0.7136882393  MEMB      183             0.0000000000
     21169       183  SAPS      H20T           33.1509581338       22.0518090654        2.1252134875  MEMB      183             0.0000000000
     21170       183  SAPS      C33            36.8892628065       17.3881646809      -11.3973024674  MEMB      183             0.0000000000
     21171       183  SAPS      H3X            37.4689802970       16.4869516407      -11.6906694294  MEMB      183             0.0000000000
     21172       183  SAPS      H3Y            35.8099462061       17.1311406142      -11.3395499382  MEMB      183             0.0000000000
     21173       183  SAPS      C34            37.3173391112       17.8880182118      -10.0106029422  MEMB      183             0.0000000000
     21174       183  SAPS      H4X            36.8039514876       18.8156478375       -9.6785515485  MEMB      183             0.0000000000
     21175       183  SAPS      H4Y            38.3950639086       18.1235758795      -10.1422950255  MEMB      183             0.0000000000
     21176       183  SAPS      C35            37.2092536421       16.8053885986       -8.9112127159  MEMB      183             0.0000000000
     21177       183  SAPS      H5X            37.7664219589       15.8744229383       -9.1503519956  MEMB      183             0.0000000000
     21178       183  SAPS      H5Y            36.2322098468       16.2784068245       -8.8665304115  MEMB      183             0.0000000000
     21179       183  SAPS      C36            37.8385720363       17.1416182211       -7.5308186279  MEMB      183             0.0000000000
     21180       183  SAPS      H6X            38.9322082376       17.3105385665       -7.6295430146  MEMB      183             0.0000000000
     21181       183  SAPS      H6Y            37.7467142268       16.2224255745       -6.9135923544  MEMB      183             0.0000000000
     21182       183  SAPS      C37            37.0645200249       18.2459120969       -6.8201587910  MEMB      183             0.0000000000
     21183       183  SAPS      H7X            37.2901778821       19.1495843464       -7.4257789323  MEMB      183             0.0000000000
     21184       183  SAPS      H7Y            37.4748675219       18.4535725759       -5.8088160477  MEMB      183             0.0000000000
     21185       183  SAPS      C38            35.5843293907       18.0651432925       -6.6179901383  MEMB      183             0.0000000000
     21186       183  SAPS      H8X            35.2007321006       17.2841190359       -5.9272115154  MEMB      183             0.0000000000
     21187       183  SAPS      H8Y            35.1622426855       17.8902213406       -7.6306934424  MEMB      183             0.0000000000
     21188       183  SAPS      C39            34.8350529199       19.3843134335       -6.1166178394  MEMB      183             0.0000000000
     21189       183  SAPS      H9X            33.7461236450       19.2498866315       -6.2912127967  MEMB      183             0.0000000000
     21190       183  SAPS      H9Y            35.1763481530       20.2092599008       -6.7779061957  MEMB      183             0.0000000000
     21191       183  SAPS      C310           35.1057577397       19.9400435314       -4.6678323311  MEMB      183             0.0000000000
     21192       183  SAPS      H10X           34.8215243012       21.0014029831       -4.5033690929  MEMB      183             0.0000000000
     21193       183  SAPS      H10Y           36.2150092999       19.9099215423       -4.6132925190  MEMB      183             0.0000000000
     21194       183  SAPS      C311           34.5036716377       19.1073805233       -3.4903963483  MEMB      183             0.0000000000
     21195       183  SAPS      H11X           34.7615018160       19.5130511733       -2.4887591743  MEMB      183             0.0000000000
     21196       183  SAPS      H11Y           34.8294323799       18.0475367036       -3.5606226327  MEMB      183             0.0000000000
     21197       183  SAPS      C312           32.9521145923       19.0590366383       -3.4451766208  MEMB      183             0.0000000000
     21198       183  SAPS      H12X           32.6035228238       18.5053248674       -2.5472866831  MEMB      183             0.0000000000
     21199       183  SAPS      H12Y           32.4068360976       18.3897435900       -4.1444907682  MEMB      183             0.0000000000
     21200       183  SAPS      C313           32.2696002874       20.3906573231       -3.2980260921  MEMB      183             0.0000000000
     21201       183  SAPS      H13X           31.2063970568       20.3595623835       -2.9771637365  MEMB      183             0.0000000000
     21202       183  SAPS      H13Y           32.3163091893       20.9197574929       -4.2738293761  MEMB      183             0.0000000000
     21203       183  SAPS      C314           33.0375465479       21.1665096792       -2.1574539926  MEMB      183             0.0000000000
     21204       183  SAPS      H14X           34.0810186991       21.4257066924       -2.4372820629  MEMB      183             0.0000000000
     21205       183  SAPS      H14Y           33.0230729729       20.5014626797       -1.2676082320  MEMB      183             0.0000000000
     21206       183  SAPS      C315           32.3489617068       22.5164615489       -1.8052901250  MEMB      183             0.0000000000
     21207       183  SAPS      H15X           32.8290690692       22.8256158221       -0.8522750586  MEMB      183             0.0000000000
     21208       183  SAPS      H15Y           31.2816917689       22.3324500746       -1.5575076242  MEMB      183             0.0000000000
     21209       183  SAPS      C316           32.6174559510       23.6891346647       -2.8732189432  MEMB      183             0.0000000000
     21210       183  SAPS      H16X           32.0183344170       24.5752239670       -2.5728512662  MEMB      183             0.0000000000
     21211       183  SAPS      H16Y           32.3537778615       23.3920177875       -3.9107717988  MEMB      183             0.0000000000
     21212       183  SAPS      C317           34.0157704484       24.2286397550       -2.9591146777  MEMB      183             0.0000000000
     21213       183  SAPS      H17X           34.1362672092       24.9191389100       -3.8210962970  MEMB      183             0.0000000000
     21214       183  SAPS      H17Y           34.6466513351       23.3831078398       -3.3075190116  MEMB      183             0.0000000000
     21215       183  SAPS      C318           34.6870522871       24.8791357685       -1.6466063793  MEMB      183             0.0000000000
     21216       183  SAPS      H18X           34.2582716962       25.8415698761       -1.2942024277  MEMB      183             0.0000000000
     21217       183  SAPS      H18Y           35.7875550499       24.9658625818       -1.7718787205  MEMB      183             0.0000000000
     21218       183  SAPS      H18Z           34.5770466234       24.1645418996       -0.8030570159  MEMB      183             0.0000000000
     21219       184  SAPC      N              31.5207017766      -24.8794348938      -21.8042171226  MEMB      184             0.0000000000
     21220       184  SAPC      C12            30.9220529256      -24.7837991717      -20.3909086795  MEMB      184             0.0000000000
     21221       184  SAPC      H12A           30.4485552381      -25.7495157642      -20.2929738621  MEMB      184             0.0000000000
     21222       184  SAPC      H12B           30.2971428048      -23.9077603239      -20.2990234139  MEMB      184             0.0000000000
     21223       184  SAPC      C13            32.2850927682      -26.1747406191      -22.0232984746  MEMB      184             0.0000000000
     21224       184  SAPC      H13A           31.6735905931      -27.0648017332      -22.0072908680  MEMB      184             0.0000000000
     21225       184  SAPC      H13B           32.8691193798      -26.0415829452      -22.9219541762  MEMB      184             0.0000000000
     21226       184  SAPC      H13C           33.0301254680      -26.3379472058      -21.2586482334  MEMB      184             0.0000000000
     21227       184  SAPC      C14            30.3644591958      -24.7599123270      -22.6773090116  MEMB      184             0.0000000000
     21228       184  SAPC      H14A           30.6547093950      -24.7944061681      -23.7170038887  MEMB      184             0.0000000000
     21229       184  SAPC      H14B           29.6467466778      -25.5469354266      -22.4987501493  MEMB      184             0.0000000000
     21230       184  SAPC      H14C           29.9489337004      -23.7924904535      -22.4368234265  MEMB      184             0.0000000000
     21231       184  SAPC      C15            32.4594598501      -23.6659677004      -21.9519136501  MEMB      184             0.0000000000
     21232       184  SAPC      H15A           32.0321297185      -22.7646874159      -21.5378089036  MEMB      184             0.0000000000
     21233       184  SAPC      H15B           33.3446176464      -23.8866835145      -21.3738303703  MEMB      184             0.0000000000
     21234       184  SAPC      H15C           32.7047743097      -23.5753876727      -22.9997763612  MEMB      184             0.0000000000
     21235       184  SAPC      C11            31.9801175363      -24.6285228436      -19.1870457918  MEMB      184             0.0000000000
     21236       184  SAPC      H11A           31.3634727398      -24.7397751186      -18.2696073525  MEMB      184             0.0000000000
     21237       184  SAPC      H11B           32.4994188055      -23.6556576797      -19.3218810919  MEMB      184             0.0000000000
     21238       184  SAPC      P              34.2409197815      -25.5555316709      -18.3144049586  MEMB      184             0.0000000000
     21239       184  SAPC      O13            33.8719410032      -25.1051305838      -16.9538940552  MEMB      184             0.0000000000
     21240       184  SAPC      O14            34.9723853243      -26.8351954279      -18.3697871928  MEMB      184             0.0000000000
     21241       184  SAPC      O12            32.9638874770      -25.6381029717      -19.1933297669  MEMB      184             0.0000000000
     21242       184  SAPC      O11            35.0556709101      -24.4578954994      -19.1338912968  MEMB      184             0.0000000000
     21243       184  SAPC      C1             35.2810655141      -23.1919070438      -18.5246872306  MEMB      184             0.0000000000
     21244       184  SAPC      HA             35.2997836560      -22.3738617537      -19.2762007173  MEMB      184             0.0000000000
     21245       184  SAPC      HB             34.4969199224      -22.9319750430      -17.7818063815  MEMB      184             0.0000000000
     21246       184  SAPC      C2             36.6822956762      -23.2106870619      -17.8834983937  MEMB      184             0.0000000000
     21247       184  SAPC      HS             37.4866694095      -23.6393178491      -18.5187776604  MEMB      184             0.0000000000
     21248       184  SAPC      O21            36.6020271157      -24.0265190794      -16.6857986686  MEMB      184             0.0000000000
     21249       184  SAPC      C21            37.7189720767      -24.6256392610      -16.1587762603  MEMB      184             0.0000000000
     21250       184  SAPC      O22            38.8348608913      -24.4836974935      -16.5402852423  MEMB      184             0.0000000000
     21251       184  SAPC      C22            37.3485938697      -25.3952467889      -14.8466951850  MEMB      184             0.0000000000
     21252       184  SAPC      H2R            38.1008637534      -25.0081855126      -14.1265605659  MEMB      184             0.0000000000
     21253       184  SAPC      H2S            36.3607862112      -25.0647503042      -14.4602641613  MEMB      184             0.0000000000
     21254       184  SAPC      C3             37.2246776834      -21.7982401569      -17.5266306070  MEMB      184             0.0000000000
     21255       184  SAPC      HX             37.4341359128      -21.1097716712      -18.3730699180  MEMB      184             0.0000000000
     21256       184  SAPC      HY             38.1522396924      -21.8824601859      -16.9209435241  MEMB      184             0.0000000000
     21257       184  SAPC      O31            36.1763652902      -21.2130309322      -16.7536228067  MEMB      184             0.0000000000
     21258       184  SAPC      C31            36.5170642268      -20.4583458479      -15.7504335714  MEMB      184             0.0000000000
     21259       184  SAPC      O32            37.6385937660      -20.2547197917      -15.2816098114  MEMB      184             0.0000000000
     21260       184  SAPC      C32            35.1672942776      -20.0104896183      -15.1449731006  MEMB      184             0.0000000000
     21261       184  SAPC      H2X            34.4055254742      -20.3199295764      -15.8921518332  MEMB      184             0.0000000000
     21262       184  SAPC      H2Y            35.1578541468      -18.9006302936      -15.0955390432  MEMB      184             0.0000000000
     21263       184  SAPC      C23            37.3381131638      -26.9429463575      -14.9487711868  MEMB      184             0.0000000000
     21264       184  SAPC      H3R            38.1832817316      -27.3667580987      -15.5322048216  MEMB      184             0.0000000000
     21265       184  SAPC      H3S            36.4875404119      -27.3451364138      -15.5396092531  MEMB      184             0.0000000000
     21266       184  SAPC      C24            37.2499093593      -27.5975733115      -13.5893988722  MEMB      184             0.0000000000
     21267       184  SAPC      H4R            36.8353861946      -28.6217772586      -13.4732194472  MEMB      184             0.0000000000
     21268       184  SAPC      H4S            36.4307832922      -27.0159185925      -13.1150238369  MEMB      184             0.0000000000
     21269       184  SAPC      C25            38.5368531868      -27.7042946912      -12.8258104423  MEMB      184             0.0000000000
     21270       184  SAPC      H5R            39.0971556161      -28.6012834252      -13.1282543100  MEMB      184             0.0000000000
     21271       184  SAPC      C26            38.8951211933      -27.0109016364      -11.6932141744  MEMB      184             0.0000000000
     21272       184  SAPC      H6R            39.8647362229      -27.3404310638      -11.2916460915  MEMB      184             0.0000000000
     21273       184  SAPC      C27            38.0163187902      -26.0154907872      -11.0813642388  MEMB      184             0.0000000000
     21274       184  SAPC      H7R            37.5429508905      -26.5107010187      -10.2067153151  MEMB      184             0.0000000000
     21275       184  SAPC      H7S            37.2526944613      -25.6250264253      -11.7875761746  MEMB      184             0.0000000000
     21276       184  SAPC      C28            38.8413829605      -24.8390424148      -10.5441878920  MEMB      184             0.0000000000
     21277       184  SAPC      H8R            39.6047132425      -24.4566883687      -11.2378255095  MEMB      184             0.0000000000
     21278       184  SAPC      C29            39.0170510814      -24.2992891308       -9.3180580581  MEMB      184             0.0000000000
     21279       184  SAPC      H9R            39.4992827780      -23.3380421998       -9.0868519038  MEMB      184             0.0000000000
     21280       184  SAPC      C210           38.2937958142      -24.8505459054       -8.1202225939  MEMB      184             0.0000000000
     21281       184  SAPC      H10R           38.1685033820      -25.9542672743       -8.1407599700  MEMB      184             0.0000000000
     21282       184  SAPC      H10S           37.2797221339      -24.3982013863       -8.1570963900  MEMB      184             0.0000000000
     21283       184  SAPC      C211           38.9960094927      -24.3389014200       -6.8415299896  MEMB      184             0.0000000000
     21284       184  SAPC      H11R           39.9809405953      -24.8166579562       -6.7335518052  MEMB      184             0.0000000000
     21285       184  SAPC      C212           38.5282091367      -23.4882999421       -5.8580907914  MEMB      184             0.0000000000
     21286       184  SAPC      H12R           39.2269329505      -23.1572803273       -5.0756521236  MEMB      184             0.0000000000
     21287       184  SAPC      C213           37.1383426346      -22.7660858563       -5.7702270140  MEMB      184             0.0000000000
     21288       184  SAPC      H13R           36.3732517156      -23.4881234057       -5.4129890893  MEMB      184             0.0000000000
     21289       184  SAPC      H13S           36.7856696193      -22.6186404413       -6.8133960034  MEMB      184             0.0000000000
     21290       184  SAPC      C214           37.1084202521      -21.3809410894       -5.1859532151  MEMB      184             0.0000000000
     21291       184  SAPC      H14R           37.4305113642      -20.5480861969       -5.8283006456  MEMB      184             0.0000000000
     21292       184  SAPC      C215           36.8547900377      -21.1239156584       -3.8912334938  MEMB      184             0.0000000000
     21293       184  SAPC      H15R           36.9655037660      -20.0646881765       -3.6159525453  MEMB      184             0.0000000000
     21294       184  SAPC      C216           36.6017154009      -22.1442396698       -2.8389883324  MEMB      184             0.0000000000
     21295       184  SAPC      H16R           37.5719069622      -22.6643479419       -2.6888630238  MEMB      184             0.0000000000
     21296       184  SAPC      H16S           35.8474768483      -22.8055420758       -3.3166105505  MEMB      184             0.0000000000
     21297       184  SAPC      C217           36.1145365060      -21.4561184217       -1.5098475946  MEMB      184             0.0000000000
     21298       184  SAPC      H17R           35.1086410190      -21.0064476841       -1.3673974903  MEMB      184             0.0000000000
     21299       184  SAPC      H17S           36.9205220499      -20.7435583387       -1.2324181278  MEMB      184             0.0000000000
     21300       184  SAPC      C218           36.0541448570      -22.3240094167       -0.1683193120  MEMB      184             0.0000000000
     21301       184  SAPC      H18R           35.1141787595      -22.9162483023       -0.1621276630  MEMB      184             0.0000000000
     21302       184  SAPC      H18S           36.0985328061      -21.6967469226        0.7475915384  MEMB      184             0.0000000000
     21303       184  SAPC      C219           37.2211941723      -23.3103247125       -0.0342123828  MEMB      184             0.0000000000
     21304       184  SAPC      H19R           38.0638705206      -22.6329019867       -0.2897825913  MEMB      184             0.0000000000
     21305       184  SAPC      H19S           37.0978543878      -24.1233925587       -0.7812253399  MEMB      184             0.0000000000
     21306       184  SAPC      C220           37.5895844964      -23.8656862417        1.3623609365  MEMB      184             0.0000000000
     21307       184  SAPC      H20R           37.6984822838      -23.0383530637        2.0958338414  MEMB      184             0.0000000000
     21308       184  SAPC      H20S           38.4264017359      -24.5964488366        1.3690253174  MEMB      184             0.0000000000
     21309       184  SAPC      H20T           36.6774252127      -24.3823544907        1.7302472992  MEMB      184             0.0000000000
     21310       184  SAPC      C33            35.1383618004      -20.6395495583      -13.7584923766  MEMB      184             0.0000000000
     21311       184  SAPC      H3X            34.2809123009      -20.2368559805      -13.1780275366  MEMB      184             0.0000000000
     21312       184  SAPC      H3Y            35.9742887493      -20.3128972833      -13.1036295276  MEMB      184             0.0000000000
     21313       184  SAPC      C34            34.9591852821      -22.1860692607      -13.5925305433  MEMB      184             0.0000000000
     21314       184  SAPC      H4X            35.9368089332      -22.5370894502      -13.9866848691  MEMB      184             0.0000000000
     21315       184  SAPC      H4Y            34.1013705254      -22.4310039912      -14.2547104686  MEMB      184             0.0000000000
     21316       184  SAPC      C35            34.6823068932      -22.8201062370      -12.2480255599  MEMB      184             0.0000000000
     21317       184  SAPC      H5X            35.5681581184      -22.6816212541      -11.5919689288  MEMB      184             0.0000000000
     21318       184  SAPC      H5Y            34.6773220957      -23.8584612963      -12.6431393727  MEMB      184             0.0000000000
     21319       184  SAPC      C36            33.4083738823      -22.2173573432      -11.4858806057  MEMB      184             0.0000000000
     21320       184  SAPC      H6X            32.6074606279      -21.9111595037      -12.1923521478  MEMB      184             0.0000000000
     21321       184  SAPC      H6Y            33.9285858527      -21.4026467813      -10.9382062037  MEMB      184             0.0000000000
     21322       184  SAPC      C37            32.7507532428      -23.2245355099      -10.4872980304  MEMB      184             0.0000000000
     21323       184  SAPC      H7X            32.2468374845      -24.0704272173      -11.0019407195  MEMB      184             0.0000000000
     21324       184  SAPC      H7Y            31.9948415057      -22.6650436103       -9.8957849348  MEMB      184             0.0000000000
     21325       184  SAPC      C38            33.6266440899      -23.9858324480       -9.4521037577  MEMB      184             0.0000000000
     21326       184  SAPC      H8X            34.3536297452      -24.6043384381      -10.0206657206  MEMB      184             0.0000000000
     21327       184  SAPC      H8Y            33.0861677591      -24.7325126367       -8.8318822297  MEMB      184             0.0000000000
     21328       184  SAPC      C39            34.4598145284      -23.1542628986       -8.5204937073  MEMB      184             0.0000000000
     21329       184  SAPC      H9X            34.9513695513      -22.2912437128       -9.0183815563  MEMB      184             0.0000000000
     21330       184  SAPC      H9Y            35.3298299381      -23.6699782014       -8.0606758366  MEMB      184             0.0000000000
     21331       184  SAPC      C310           33.5960129420      -22.7088183582       -7.4063729982  MEMB      184             0.0000000000
     21332       184  SAPC      H10X           32.7214753067      -22.0897770806       -7.7001296708  MEMB      184             0.0000000000
     21333       184  SAPC      H10Y           34.1575990937      -21.9886031148       -6.7737343084  MEMB      184             0.0000000000
     21334       184  SAPC      C311           33.1510724150      -23.8255775119       -6.3900876357  MEMB      184             0.0000000000
     21335       184  SAPC      H11X           34.0344028093      -24.4866180453       -6.2594210253  MEMB      184             0.0000000000
     21336       184  SAPC      H11Y           32.2871754516      -24.4120217191       -6.7696750682  MEMB      184             0.0000000000
     21337       184  SAPC      C312           32.7534861843      -23.2639728731       -4.9569202277  MEMB      184             0.0000000000
     21338       184  SAPC      H12X           32.0705467201      -22.4096441811       -5.1519521350  MEMB      184             0.0000000000
     21339       184  SAPC      H12Y           33.6515103590      -22.8551494166       -4.4462958712  MEMB      184             0.0000000000
     21340       184  SAPC      C313           32.0716868092      -24.3325327914       -4.1112916602  MEMB      184             0.0000000000
     21341       184  SAPC      H13X           31.0712561984      -24.5246746105       -4.5546216404  MEMB      184             0.0000000000
     21342       184  SAPC      H13Y           32.0511048398      -23.8073747849       -3.1324624936  MEMB      184             0.0000000000
     21343       184  SAPC      C314           32.9606512577      -25.5959332466       -3.8952147390  MEMB      184             0.0000000000
     21344       184  SAPC      H14X           33.0930312319      -26.1696327086       -4.8373746762  MEMB      184             0.0000000000
     21345       184  SAPC      H14Y           32.3460937883      -26.3239228710       -3.3236636013  MEMB      184             0.0000000000
     21346       184  SAPC      C315           34.3512868946      -25.3418961566       -3.2235255499  MEMB      184             0.0000000000
     21347       184  SAPC      H15X           34.1357566418      -24.8523661458       -2.2497544624  MEMB      184             0.0000000000
     21348       184  SAPC      H15Y           34.8491577642      -24.5777403986       -3.8579631167  MEMB      184             0.0000000000
     21349       184  SAPC      C316           35.3252857341      -26.4556477220       -3.2705028929  MEMB      184             0.0000000000
     21350       184  SAPC      H16X           35.3774048069      -26.8987768386       -4.2879709412  MEMB      184             0.0000000000
     21351       184  SAPC      H16Y           35.0376329018      -27.2351196241       -2.5329399468  MEMB      184             0.0000000000
     21352       184  SAPC      C317           36.8008413181      -26.0668615837       -3.1211109194  MEMB      184             0.0000000000
     21353       184  SAPC      H17X           36.9200535674      -25.5243071977       -2.1589562144  MEMB      184             0.0000000000
     21354       184  SAPC      H17Y           37.1802085754      -25.4076765634       -3.9309736462  MEMB      184             0.0000000000
     21355       184  SAPC      C318           37.8493383305      -27.1986161269       -2.9890531919  MEMB      184             0.0000000000
     21356       184  SAPC      H18X           37.9015240453      -27.8373886279       -3.8965584566  MEMB      184             0.0000000000
     21357       184  SAPC      H18Y           37.6969121174      -27.8464442736       -2.0994422485  MEMB      184             0.0000000000
     21358       184  SAPC      H18Z           38.8520779785      -26.7517613635       -2.8183049395  MEMB      184             0.0000000000
     21359       185  SLPC      N             -31.5194044640       28.9188491913      -18.4943398438  MEMB      185             0.0000000000
     21360       185  SLPC      C13           -32.8904801284       29.4625828566      -18.0998822237  MEMB      185             0.0000000000
     21361       185  SLPC      H13A          -33.4934007418       29.6834619213      -18.9682710855  MEMB      185             0.0000000000
     21362       185  SLPC      H13B          -33.3895482281       28.7010779824      -17.5189850097  MEMB      185             0.0000000000
     21363       185  SLPC      H13C          -32.7308388592       30.3780482846      -17.5495751296  MEMB      185             0.0000000000
     21364       185  SLPC      C14           -30.7989995348       30.1024276100      -19.1647808749  MEMB      185             0.0000000000
     21365       185  SLPC      H14A          -31.2705965410       30.4352442242      -20.0775948052  MEMB      185             0.0000000000
     21366       185  SLPC      H14B          -30.8490870411       30.9016918008      -18.4401652990  MEMB      185             0.0000000000
     21367       185  SLPC      H14C          -29.7595680898       29.9449224775      -19.4121156209  MEMB      185             0.0000000000
     21368       185  SLPC      C15           -31.7212952857       27.8250859790      -19.4806120083  MEMB      185             0.0000000000
     21369       185  SLPC      H15A          -30.8501674652       27.1901793411      -19.5471687149  MEMB      185             0.0000000000
     21370       185  SLPC      H15B          -32.6308247353       27.2868838678      -19.2581383851  MEMB      185             0.0000000000
     21371       185  SLPC      H15C          -31.8463337501       28.3195247299      -20.4326078792  MEMB      185             0.0000000000
     21372       185  SLPC      C12           -30.8973636193       28.2069055599      -17.2502848262  MEMB      185             0.0000000000
     21373       185  SLPC      H12A          -30.0368421488       27.7115243771      -17.6751381296  MEMB      185             0.0000000000
     21374       185  SLPC      H12B          -31.5941110945       27.4491274993      -16.9236115244  MEMB      185             0.0000000000
     21375       185  SLPC      C11           -30.4829017623       29.0519089977      -16.0666461585  MEMB      185             0.0000000000
     21376       185  SLPC      H11A          -30.0351553269       28.3490225363      -15.3319389374  MEMB      185             0.0000000000
     21377       185  SLPC      H11B          -31.2980019426       29.5693335727      -15.5169149428  MEMB      185             0.0000000000
     21378       185  SLPC      P             -28.6244635827       30.9379271235      -15.6162038622  MEMB      185             0.0000000000
     21379       185  SLPC      O13           -28.7416756774       30.6014194869      -14.1264582639  MEMB      185             0.0000000000
     21380       185  SLPC      O14           -27.2788714222       30.8985729090      -16.2552366981  MEMB      185             0.0000000000
     21381       185  SLPC      O12           -29.5747157119       30.0587030986      -16.5700071872  MEMB      185             0.0000000000
     21382       185  SLPC      O11           -29.1651487449       32.4412319702      -15.8755480533  MEMB      185             0.0000000000
     21383       185  SLPC      C1            -30.5468744340       32.7362210412      -15.9218154900  MEMB      185             0.0000000000
     21384       185  SLPC      HA            -30.7537157182       33.2044939417      -16.9078469430  MEMB      185             0.0000000000
     21385       185  SLPC      HB            -31.1575985642       31.8086326394      -15.8915370249  MEMB      185             0.0000000000
     21386       185  SLPC      C2            -30.9901145731       33.7499325090      -14.7835771385  MEMB      185             0.0000000000
     21387       185  SLPC      HS            -30.8058833517       34.7481958956      -15.2350745488  MEMB      185             0.0000000000
     21388       185  SLPC      O21           -30.1595824098       33.5134154372      -13.5968699143  MEMB      185             0.0000000000
     21389       185  SLPC      C21           -30.0860544288       34.6474012577      -12.8562033441  MEMB      185             0.0000000000
     21390       185  SLPC      O22           -30.5325517695       35.7559235581      -13.1324403759  MEMB      185             0.0000000000
     21391       185  SLPC      C22           -29.2205315471       34.3476537579      -11.6636764993  MEMB      185             0.0000000000
     21392       185  SLPC      H2R           -29.4831133089       33.3906990604      -11.1640670661  MEMB      185             0.0000000000
     21393       185  SLPC      H2S           -28.2128988406       34.0160440388      -11.9938767331  MEMB      185             0.0000000000
     21394       185  SLPC      C3            -32.4198606951       33.6556328410      -14.3369637582  MEMB      185             0.0000000000
     21395       185  SLPC      HX            -33.0301533474       34.0306102994      -15.1862317488  MEMB      185             0.0000000000
     21396       185  SLPC      HY            -32.6518808710       34.2908578344      -13.4555005218  MEMB      185             0.0000000000
     21397       185  SLPC      O31           -32.7636602386       32.3141077175      -14.1920325245  MEMB      185             0.0000000000
     21398       185  SLPC      C31           -32.9284751639       31.8479912299      -12.9643562784  MEMB      185             0.0000000000
     21399       185  SLPC      O32           -32.7863561418       32.4691457283      -11.9402776158  MEMB      185             0.0000000000
     21400       185  SLPC      C32           -33.4889541740       30.4115899197      -13.0887550876  MEMB      185             0.0000000000
     21401       185  SLPC      H2X           -33.0323930814       29.8310881353      -13.9187494326  MEMB      185             0.0000000000
     21402       185  SLPC      H2Y           -34.5661271588       30.4388750466      -13.3594494026  MEMB      185             0.0000000000
     21403       185  SLPC      C23           -29.0746600719       35.4474821401      -10.6310962152  MEMB      185             0.0000000000
     21404       185  SLPC      H3R           -30.0437586856       35.5062083837      -10.0909851396  MEMB      185             0.0000000000
     21405       185  SLPC      H3S           -29.0304787434       36.4628636005      -11.0798377294  MEMB      185             0.0000000000
     21406       185  SLPC      C24           -28.0182018472       35.2816735994       -9.5099333120  MEMB      185             0.0000000000
     21407       185  SLPC      H4R           -28.2149890312       36.0452570849       -8.7272861873  MEMB      185             0.0000000000
     21408       185  SLPC      H4S           -27.0622083977       35.3227905809      -10.0744746981  MEMB      185             0.0000000000
     21409       185  SLPC      C25           -28.0872299354       33.8757779811       -8.8297608451  MEMB      185             0.0000000000
     21410       185  SLPC      H5R           -27.8357978458       33.1110847374       -9.5954943102  MEMB      185             0.0000000000
     21411       185  SLPC      H5S           -29.0747308028       33.6554878064       -8.3708110056  MEMB      185             0.0000000000
     21412       185  SLPC      C26           -27.0942885826       33.6101226438       -7.6335039801  MEMB      185             0.0000000000
     21413       185  SLPC      H6R           -27.0923649570       32.5187914694       -7.4253846297  MEMB      185             0.0000000000
     21414       185  SLPC      H6S           -27.4761249484       34.0544343019       -6.6895177667  MEMB      185             0.0000000000
     21415       185  SLPC      C27           -25.7160530316       34.1370478755       -7.9132647968  MEMB      185             0.0000000000
     21416       185  SLPC      H7R           -25.7223407592       35.2478453611       -7.9335290094  MEMB      185             0.0000000000
     21417       185  SLPC      H7S           -25.3832758814       33.6790669353       -8.8692115611  MEMB      185             0.0000000000
     21418       185  SLPC      C28           -24.6491960822       33.6658675813       -6.8682303633  MEMB      185             0.0000000000
     21419       185  SLPC      H8R           -23.7270503264       34.0958298669       -7.3144373322  MEMB      185             0.0000000000
     21420       185  SLPC      H8S           -24.6746707296       32.5560192666       -6.9119154816  MEMB      185             0.0000000000
     21421       185  SLPC      C29           -24.7549397676       34.2879257669       -5.5338703867  MEMB      185             0.0000000000
     21422       185  SLPC      H9R           -24.5484132116       35.3677801413       -5.4983525812  MEMB      185             0.0000000000
     21423       185  SLPC      C210          -25.0830797656       33.6052291824       -4.3644248682  MEMB      185             0.0000000000
     21424       185  SLPC      H10R          -25.1428986055       34.2133414344       -3.4497547665  MEMB      185             0.0000000000
     21425       185  SLPC      C211          -25.3610737344       32.1377587972       -4.1699006520  MEMB      185             0.0000000000
     21426       185  SLPC      H11R          -25.5592087114       31.5681715270       -5.1029783220  MEMB      185             0.0000000000
     21427       185  SLPC      H11S          -26.2704349806       32.0702177408       -3.5352181494  MEMB      185             0.0000000000
     21428       185  SLPC      C212          -24.2857190156       31.4338928346       -3.3754986045  MEMB      185             0.0000000000
     21429       185  SLPC      H12R          -23.4045413142       31.2043167771       -3.9926045456  MEMB      185             0.0000000000
     21430       185  SLPC      C213          -24.3568810452       30.8695849998       -2.1711785900  MEMB      185             0.0000000000
     21431       185  SLPC      H13R          -23.4776830125       30.2474124334       -1.9477688567  MEMB      185             0.0000000000
     21432       185  SLPC      C214          -25.5617440531       30.7579333284       -1.1985057686  MEMB      185             0.0000000000
     21433       185  SLPC      H14R          -25.8746083860       29.6945891958       -1.1227665876  MEMB      185             0.0000000000
     21434       185  SLPC      H14S          -26.3915146760       31.3810990963       -1.5953254096  MEMB      185             0.0000000000
     21435       185  SLPC      C215          -25.3277500826       31.2872992033        0.2603354853  MEMB      185             0.0000000000
     21436       185  SLPC      H15R          -24.7911984128       30.5449828191        0.8891429107  MEMB      185             0.0000000000
     21437       185  SLPC      H15S          -26.3234481735       31.3452477570        0.7497713993  MEMB      185             0.0000000000
     21438       185  SLPC      C216          -24.8120975761       32.7346428549        0.4044012789  MEMB      185             0.0000000000
     21439       185  SLPC      H16R          -23.7976329443       32.7839832537       -0.0458741236  MEMB      185             0.0000000000
     21440       185  SLPC      H16S          -24.6113526436       33.0034855441        1.4635267962  MEMB      185             0.0000000000
     21441       185  SLPC      C217          -25.7179892760       33.8062724736       -0.3372669687  MEMB      185             0.0000000000
     21442       185  SLPC      H17R          -26.7372720291       33.5603490398        0.0300279049  MEMB      185             0.0000000000
     21443       185  SLPC      H17S          -25.6616809422       33.5852136486       -1.4245950697  MEMB      185             0.0000000000
     21444       185  SLPC      C218          -25.1742057645       35.2108738648       -0.1359405142  MEMB      185             0.0000000000
     21445       185  SLPC      H18R          -25.7124117210       35.9574957448       -0.7582043358  MEMB      185             0.0000000000
     21446       185  SLPC      H18S          -24.0964236143       35.2924959535       -0.3929325257  MEMB      185             0.0000000000
     21447       185  SLPC      H18T          -25.2188882874       35.6163456148        0.8974608469  MEMB      185             0.0000000000
     21448       185  SLPC      C33           -33.4639767469       29.6422943903      -11.7932788418  MEMB      185             0.0000000000
     21449       185  SLPC      H3X           -34.1128706299       28.7440939388      -11.8738625169  MEMB      185             0.0000000000
     21450       185  SLPC      H3Y           -33.8549413344       30.2122687915      -10.9234531903  MEMB      185             0.0000000000
     21451       185  SLPC      C34           -32.1045175322       29.0419529892      -11.6187776958  MEMB      185             0.0000000000
     21452       185  SLPC      H4X           -31.3351337067       29.8368445721      -11.7213309700  MEMB      185             0.0000000000
     21453       185  SLPC      H4Y           -31.9977123461       28.3647580598      -12.4930317417  MEMB      185             0.0000000000
     21454       185  SLPC      C35           -31.7301461804       28.3391630295      -10.2815760496  MEMB      185             0.0000000000
     21455       185  SLPC      H5X           -32.1347269240       27.3046776386      -10.2597836099  MEMB      185             0.0000000000
     21456       185  SLPC      H5Y           -32.1933696175       28.9460978533       -9.4744977074  MEMB      185             0.0000000000
     21457       185  SLPC      C36           -30.2759571319       28.0583923452      -10.0388914956  MEMB      185             0.0000000000
     21458       185  SLPC      H6X           -29.9140850552       27.5215760868      -10.9417748169  MEMB      185             0.0000000000
     21459       185  SLPC      H6Y           -30.2496142495       27.4336179275       -9.1205867966  MEMB      185             0.0000000000
     21460       185  SLPC      C37           -29.4920464103       29.3465710164       -9.7492731926  MEMB      185             0.0000000000
     21461       185  SLPC      H7X           -29.6410459459       30.1037806717      -10.5484942606  MEMB      185             0.0000000000
     21462       185  SLPC      H7Y           -28.4170164419       29.0843312892       -9.8485809224  MEMB      185             0.0000000000
     21463       185  SLPC      C38           -29.7553371032       30.1316500014       -8.4482648041  MEMB      185             0.0000000000
     21464       185  SLPC      H8X           -30.6757713952       30.7461772994       -8.5456199235  MEMB      185             0.0000000000
     21465       185  SLPC      H8Y           -29.0857102323       31.0046280829       -8.2938964487  MEMB      185             0.0000000000
     21466       185  SLPC      C39           -29.8239327246       29.2404018757       -7.2128997696  MEMB      185             0.0000000000
     21467       185  SLPC      H9X           -29.0709571046       28.4284857153       -7.3031259459  MEMB      185             0.0000000000
     21468       185  SLPC      H9Y           -30.8477159348       28.8159943110       -7.1350079285  MEMB      185             0.0000000000
     21469       185  SLPC      C310          -29.5087255895       29.9611108794       -5.8536182081  MEMB      185             0.0000000000
     21470       185  SLPC      H10X          -28.4870515958       30.3975677704       -5.8565467037  MEMB      185             0.0000000000
     21471       185  SLPC      H10Y          -29.6928054656       29.1426194437       -5.1252586432  MEMB      185             0.0000000000
     21472       185  SLPC      C311          -30.6195348881       31.0353965203       -5.5826688373  MEMB      185             0.0000000000
     21473       185  SLPC      H11X          -31.6184428509       30.5810816073       -5.4091694470  MEMB      185             0.0000000000
     21474       185  SLPC      H11Y          -30.6816820730       31.5954062487       -6.5401907651  MEMB      185             0.0000000000
     21475       185  SLPC      C312          -30.1832425111       32.0774822577       -4.5137643257  MEMB      185             0.0000000000
     21476       185  SLPC      H12X          -30.5057652199       33.1183972244       -4.7300880271  MEMB      185             0.0000000000
     21477       185  SLPC      H12Y          -29.0805166539       31.9652452712       -4.4381358213  MEMB      185             0.0000000000
     21478       185  SLPC      C313          -30.6740208396       31.7260317162       -3.0831783057  MEMB      185             0.0000000000
     21479       185  SLPC      H13X          -30.2347826293       32.5081054299       -2.4276240358  MEMB      185             0.0000000000
     21480       185  SLPC      H13Y          -30.0594772799       30.8443191846       -2.8016817126  MEMB      185             0.0000000000
     21481       185  SLPC      C314          -32.2029298004       31.4885868502       -2.8930601214  MEMB      185             0.0000000000
     21482       185  SLPC      H14X          -32.7554545251       30.9297818028       -3.6784102784  MEMB      185             0.0000000000
     21483       185  SLPC      H14Y          -32.6393688566       32.5029279970       -3.0153474966  MEMB      185             0.0000000000
     21484       185  SLPC      C315          -32.4749973803       30.8190673225       -1.6369021377  MEMB      185             0.0000000000
     21485       185  SLPC      H15X          -32.1484633714       29.7595664117       -1.7086966267  MEMB      185             0.0000000000
     21486       185  SLPC      H15Y          -33.5578330964       30.6546490915       -1.4504773775  MEMB      185             0.0000000000
     21487       185  SLPC      C316          -31.7343839586       31.3694425071       -0.3440186287  MEMB      185             0.0000000000
     21488       185  SLPC      H16X          -30.6442010885       31.4050826952       -0.5550915292  MEMB      185             0.0000000000
     21489       185  SLPC      H16Y          -31.9511879761       30.6878448361        0.5061228075  MEMB      185             0.0000000000
     21490       185  SLPC      C317          -32.2035256687       32.7301486431        0.0860463516  MEMB      185             0.0000000000
     21491       185  SLPC      H17X          -33.1031579735       32.4764512594        0.6865629376  MEMB      185             0.0000000000
     21492       185  SLPC      H17Y          -32.4859656923       33.2834105605       -0.8350661027  MEMB      185             0.0000000000
     21493       185  SLPC      C318          -31.1839039616       33.3580580461        0.9747580679  MEMB      185             0.0000000000
     21494       185  SLPC      H18X          -30.1498360804       33.3003124155        0.5726514315  MEMB      185             0.0000000000
     21495       185  SLPC      H18Y          -31.1599407888       32.7404413410        1.8979561899  MEMB      185             0.0000000000
     21496       185  SLPC      H18Z          -31.5197699715       34.3961350609        1.1843069248  MEMB      185             0.0000000000
     21497       186  CHL1      C3             24.0801498821      -34.4528436582      -17.3034050000  MEMB      186             0.0000000000
     21498       186  CHL1      H3             23.1589227449      -33.8839772519      -17.0542950000  MEMB      186             0.0000000000
     21499       186  CHL1      O3             24.0993149179      -34.5977267418      -18.6965950000  MEMB      186             0.0000000000
     21500       186  CHL1      H3'            23.7712381525      -33.7456420110      -18.9931150000  MEMB      186             0.0000000000
     21501       186  CHL1      C4             25.2408527027      -33.5510394156      -16.8426750000  MEMB      186             0.0000000000
     21502       186  CHL1      H4A            26.2068495947      -33.8797804271      -17.2820850000  MEMB      186             0.0000000000
     21503       186  CHL1      H4B            24.9442064322      -32.5749356944      -17.2826250000  MEMB      186             0.0000000000
     21504       186  CHL1      C5             25.4575750762      -33.4115833623      -15.3342250000  MEMB      186             0.0000000000
     21505       186  CHL1      C6             25.7444853177      -32.2095100750      -14.7687650000  MEMB      186             0.0000000000
     21506       186  CHL1      H6             25.9587313378      -31.3594817432      -15.4332450000  MEMB      186             0.0000000000
     21507       186  CHL1      C7             26.1745658098      -32.1399732302      -13.3147750000  MEMB      186             0.0000000000
     21508       186  CHL1      H7A            27.0726338874      -31.4864806707      -13.2873550000  MEMB      186             0.0000000000
     21509       186  CHL1      H7B            25.2932915187      -31.7279130715      -12.7782350000  MEMB      186             0.0000000000
     21510       186  CHL1      C8             26.5283253985      -33.5185794381      -12.6742350000  MEMB      186             0.0000000000
     21511       186  CHL1      H8             27.5699439800      -33.7092340210      -13.0104050000  MEMB      186             0.0000000000
     21512       186  CHL1      C14            26.5076341375      -33.4188613359      -11.1440050000  MEMB      186             0.0000000000
     21513       186  CHL1      H14            25.4674560219      -33.1929779302      -10.8256750000  MEMB      186             0.0000000000
     21514       186  CHL1      C15            27.2218389133      -32.1517337187      -10.5262350000  MEMB      186             0.0000000000
     21515       186  CHL1      H15A           28.1589219240      -31.9061264199      -11.0701650000  MEMB      186             0.0000000000
     21516       186  CHL1      H15B           26.6978043535      -31.1798776900      -10.6495750000  MEMB      186             0.0000000000
     21517       186  CHL1      C16            27.3248823637      -32.4718046231       -9.0367450000  MEMB      186             0.0000000000
     21518       186  CHL1      H16A           28.3936829470      -32.3074121323       -8.7818750000  MEMB      186             0.0000000000
     21519       186  CHL1      H16B           26.6285450906      -31.8963764646       -8.3899850000  MEMB      186             0.0000000000
     21520       186  CHL1      C17            27.0121295992      -34.0530684467       -8.9584250000  MEMB      186             0.0000000000
     21521       186  CHL1      H17            25.9578716942      -34.1534403775       -8.6225850000  MEMB      186             0.0000000000
     21522       186  CHL1      C13            26.9753867733      -34.6090776301      -10.4001850000  MEMB      186             0.0000000000
     21523       186  CHL1      C18            28.4305870420      -34.9681094753      -10.9265550000  MEMB      186             0.0000000000
     21524       186  CHL1      H18A           29.0532362913      -35.5232795600      -10.1927950000  MEMB      186             0.0000000000
     21525       186  CHL1      H18B           28.3793326759      -35.5689471909      -11.8596550000  MEMB      186             0.0000000000
     21526       186  CHL1      H18C           28.9435367439      -34.0129319158      -11.1691150000  MEMB      186             0.0000000000
     21527       186  CHL1      C12            25.9624829194      -35.7636876966      -10.6973450000  MEMB      186             0.0000000000
     21528       186  CHL1      H12A           26.4233624625      -36.7050100610      -10.3288150000  MEMB      186             0.0000000000
     21529       186  CHL1      H12B           25.0308968076      -35.4848483996      -10.1600250000  MEMB      186             0.0000000000
     21530       186  CHL1      C11            25.7102139849      -35.9716572056      -12.1973850000  MEMB      186             0.0000000000
     21531       186  CHL1      H11A           26.6758411069      -36.3899837838      -12.5536050000  MEMB      186             0.0000000000
     21532       186  CHL1      H11B           24.8247169023      -36.6310593406      -12.3215150000  MEMB      186             0.0000000000
     21533       186  CHL1      C9             25.5252666551      -34.6175654532      -13.0687150000  MEMB      186             0.0000000000
     21534       186  CHL1      H9             24.5441980722      -34.2853916828      -12.6668650000  MEMB      186             0.0000000000
     21535       186  CHL1      C10            25.3743678340      -34.7247445436      -14.5904850000  MEMB      186             0.0000000000
     21536       186  CHL1      C19            26.6072404254      -35.4956226721      -15.1353150000  MEMB      186             0.0000000000
     21537       186  CHL1      H19A           27.5260368113      -35.0444644301      -14.7033650000  MEMB      186             0.0000000000
     21538       186  CHL1      H19B           26.6214470744      -36.5736610380      -14.8670750000  MEMB      186             0.0000000000
     21539       186  CHL1      H19C           26.7063261679      -35.4716096313      -16.2416350000  MEMB      186             0.0000000000
     21540       186  CHL1      C1             24.1954922822      -35.5922007551      -14.9943350000  MEMB      186             0.0000000000
     21541       186  CHL1      H1A            24.3508933835      -36.6147750935      -14.5887350000  MEMB      186             0.0000000000
     21542       186  CHL1      H1B            23.2565702648      -35.1737196413      -14.5728950000  MEMB      186             0.0000000000
     21543       186  CHL1      C2             24.0258598664      -35.8201500629      -16.5518050000  MEMB      186             0.0000000000
     21544       186  CHL1      H2A            23.0706572504      -36.3534157138      -16.7455450000  MEMB      186             0.0000000000
     21545       186  CHL1      H2B            24.8707581044      -36.4816343246      -16.8397250000  MEMB      186             0.0000000000
     21546       186  CHL1      C20            27.8147974126      -34.7913291459       -7.8402350000  MEMB      186             0.0000000000
     21547       186  CHL1      H20            28.8553068195      -34.7998895395       -8.2295650000  MEMB      186             0.0000000000
     21548       186  CHL1      C21            27.2053949715      -36.1493926286       -7.6019550000  MEMB      186             0.0000000000
     21549       186  CHL1      H21A           26.0991017383      -36.2274435575       -7.5359550000  MEMB      186             0.0000000000
     21550       186  CHL1      H21B           27.6612062952      -36.7151093146       -6.7614050000  MEMB      186             0.0000000000
     21551       186  CHL1      H21C           27.5195300901      -36.7120090874       -8.5070050000  MEMB      186             0.0000000000
     21552       186  CHL1      C22            27.7468961301      -33.9698821469       -6.4881350000  MEMB      186             0.0000000000
     21553       186  CHL1      H22A           28.2208987500      -32.9787898550       -6.6535950000  MEMB      186             0.0000000000
     21554       186  CHL1      H22B           26.7086499080      -33.8032040045       -6.1295550000  MEMB      186             0.0000000000
     21555       186  CHL1      C23            28.5056446509      -34.5979979154       -5.3892550000  MEMB      186             0.0000000000
     21556       186  CHL1      H23A           28.0074920981      -35.5411485726       -5.0783750000  MEMB      186             0.0000000000
     21557       186  CHL1      H23B           29.4773757219      -34.8084751992       -5.8849850000  MEMB      186             0.0000000000
     21558       186  CHL1      C24            28.8007191367      -33.7581545551       -4.1656450000  MEMB      186             0.0000000000
     21559       186  CHL1      H24A           29.1382489717      -32.7476931572       -4.4808550000  MEMB      186             0.0000000000
     21560       186  CHL1      H24B           27.8221814513      -33.4409028039       -3.7459650000  MEMB      186             0.0000000000
     21561       186  CHL1      C25            29.8065733267      -34.3676543767       -3.1930250000  MEMB      186             0.0000000000
     21562       186  CHL1      H25            30.1123586053      -35.3672502207       -3.5693650000  MEMB      186             0.0000000000
     21563       186  CHL1      C26            31.0757086347      -33.5433043829       -2.8324250000  MEMB      186             0.0000000000
     21564       186  CHL1      H26A           31.9030803986      -34.2435730746       -2.5886950000  MEMB      186             0.0000000000
     21565       186  CHL1      H26B           31.4399139863      -32.9887824995       -3.7236050000  MEMB      186             0.0000000000
     21566       186  CHL1      H26C           30.8495964335      -32.7973962906       -2.0407150000  MEMB      186             0.0000000000
     21567       186  CHL1      C27            29.0696001931      -34.6748509082       -1.8661750000  MEMB      186             0.0000000000
     21568       186  CHL1      H27A           29.7103340520      -34.9982309222       -1.0181150000  MEMB      186             0.0000000000
     21569       186  CHL1      H27B           28.5210598046      -33.7573796399       -1.5634150000  MEMB      186             0.0000000000
     21570       186  CHL1      H27C           28.2625608644      -35.4186383700       -2.0387350000  MEMB      186             0.0000000000
     21571       187  CHL1      C3             30.2567189835       33.2935384079      -17.3103650000  MEMB      187             0.0000000000
     21572       187  CHL1      H3             29.1639833605       33.4938728710      -17.2991950000  MEMB      187             0.0000000000
     21573       187  CHL1      O3             30.5575680165       33.4050099921      -18.6896350000  MEMB      187             0.0000000000
     21574       187  CHL1      H3'            29.6746431761       33.2970107261      -19.0507050000  MEMB      187             0.0000000000
     21575       187  CHL1      C4             31.0683455610       34.3524103536      -16.6811950000  MEMB      187             0.0000000000
     21576       187  CHL1      H4A            32.1150427770       34.0007584111      -16.8040250000  MEMB      187             0.0000000000
     21577       187  CHL1      H4B            30.8725777512       35.2823029480      -17.2567950000  MEMB      187             0.0000000000
     21578       187  CHL1      C5             30.7184616063       34.4936344707      -15.2197450000  MEMB      187             0.0000000000
     21579       187  CHL1      C6             30.2553313710       35.6281060502      -14.6463150000  MEMB      187             0.0000000000
     21580       187  CHL1      H6             30.1926192551       36.5856830108      -15.1839950000  MEMB      187             0.0000000000
     21581       187  CHL1      C7             29.9633080929       35.7875638203      -13.2031150000  MEMB      187             0.0000000000
     21582       187  CHL1      H7A            30.5214155431       36.6719041705      -12.8279250000  MEMB      187             0.0000000000
     21583       187  CHL1      H7B            28.9165359908       36.0203657864      -12.9126050000  MEMB      187             0.0000000000
     21584       187  CHL1      C8             30.5651298562       34.5479037716      -12.3332650000  MEMB      187             0.0000000000
     21585       187  CHL1      H8             31.6455860606       34.7833009663      -12.2259450000  MEMB      187             0.0000000000
     21586       187  CHL1      C14            29.8537414011       34.5421949398      -10.9813750000  MEMB      187             0.0000000000
     21587       187  CHL1      H14            28.7856512737       34.3804275884      -11.2408650000  MEMB      187             0.0000000000
     21588       187  CHL1      C15            29.9736124674       35.8142879286      -10.1808850000  MEMB      187             0.0000000000
     21589       187  CHL1      H15A           30.9396101896       36.3442412286      -10.3234150000  MEMB      187             0.0000000000
     21590       187  CHL1      H15B           29.2502157951       36.6066629881      -10.4692550000  MEMB      187             0.0000000000
     21591       187  CHL1      C16            29.5954105733       35.2853119692       -8.7493650000  MEMB      187             0.0000000000
     21592       187  CHL1      H16A           30.3010142785       35.6334951660       -7.9650150000  MEMB      187             0.0000000000
     21593       187  CHL1      H16B           28.5462317061       35.5123497283       -8.4629950000  MEMB      187             0.0000000000
     21594       187  CHL1      C17            29.6247703476       33.7513080951       -8.7070050000  MEMB      187             0.0000000000
     21595       187  CHL1      H17            28.5507690974       33.5285188172       -8.8836550000  MEMB      187             0.0000000000
     21596       187  CHL1      C13            30.3211352976       33.3659351610      -10.0362350000  MEMB      187             0.0000000000
     21597       187  CHL1      C18            31.8403628575       33.5511048177       -9.7889550000  MEMB      187             0.0000000000
     21598       187  CHL1      H18A           32.0367445950       32.7405624340       -9.0549350000  MEMB      187             0.0000000000
     21599       187  CHL1      H18B           32.4971761981       33.3628650239      -10.6650150000  MEMB      187             0.0000000000
     21600       187  CHL1      H18C           32.1188561185       34.5137133554       -9.3092150000  MEMB      187             0.0000000000
     21601       187  CHL1      C12            29.9003585759       32.0532120369      -10.7738150000  MEMB      187             0.0000000000
     21602       187  CHL1      H12A           30.2634876256       31.1405964645      -10.2545850000  MEMB      187             0.0000000000
     21603       187  CHL1      H12B           28.8055934755       32.0858354300      -10.9602250000  MEMB      187             0.0000000000
     21604       187  CHL1      C11            30.5501078233       32.0198937287      -12.1452550000  MEMB      187             0.0000000000
     21605       187  CHL1      H11A           31.6182295429       31.9879449914      -11.8412350000  MEMB      187             0.0000000000
     21606       187  CHL1      H11B           30.3285267855       31.0393990802      -12.6183750000  MEMB      187             0.0000000000
     21607       187  CHL1      C9             30.2588536896       33.2796891072      -13.0199350000  MEMB      187             0.0000000000
     21608       187  CHL1      H9             29.1561356512       33.3383774130      -13.1418950000  MEMB      187             0.0000000000
     21609       187  CHL1      C10            30.8587568063       33.1611114079      -14.4182350000  MEMB      187             0.0000000000
     21610       187  CHL1      C19            32.3850187624       32.7282781831      -14.2148150000  MEMB      187             0.0000000000
     21611       187  CHL1      H19A           33.0032327000       33.4926821590      -13.6973250000  MEMB      187             0.0000000000
     21612       187  CHL1      H19B           32.5673997052       31.8566056599      -13.5505550000  MEMB      187             0.0000000000
     21613       187  CHL1      H19C           32.7733628708       32.6000079640      -15.2478050000  MEMB      187             0.0000000000
     21614       187  CHL1      C1             30.1550912891       31.9809965059      -15.2116250000  MEMB      187             0.0000000000
     21615       187  CHL1      H1A            30.4014075078       30.9989313855      -14.7542550000  MEMB      187             0.0000000000
     21616       187  CHL1      H1B            29.0713898901       32.1643920642      -15.0495150000  MEMB      187             0.0000000000
     21617       187  CHL1      C2             30.4894261313       31.9027964889      -16.7198850000  MEMB      187             0.0000000000
     21618       187  CHL1      H2A            29.7351932296       31.2360960439      -17.1899550000  MEMB      187             0.0000000000
     21619       187  CHL1      H2B            31.4856696735       31.4225476440      -16.8255850000  MEMB      187             0.0000000000
     21620       187  CHL1      C20            30.1287107121       33.0746125129       -7.3930650000  MEMB      187             0.0000000000
     21621       187  CHL1      H20            31.2239064511       33.1867138415       -7.2437150000  MEMB      187             0.0000000000
     21622       187  CHL1      C21            29.8653519171       31.5723734242       -7.4563750000  MEMB      187             0.0000000000
     21623       187  CHL1      H21A           30.5260598406       31.0392781378       -8.1730350000  MEMB      187             0.0000000000
     21624       187  CHL1      H21B           28.8104553526       31.2861070560       -7.6553150000  MEMB      187             0.0000000000
     21625       187  CHL1      H21C           30.0834074307       31.0528349571       -6.4988450000  MEMB      187             0.0000000000
     21626       187  CHL1      C22            29.4073337924       33.6509417454       -6.2207150000  MEMB      187             0.0000000000
     21627       187  CHL1      H22A           29.3435978366       34.7571704357       -6.3014150000  MEMB      187             0.0000000000
     21628       187  CHL1      H22B           28.4205310475       33.2027116901       -5.9765550000  MEMB      187             0.0000000000
     21629       187  CHL1      C23            30.2140252989       33.3802619006       -4.9013450000  MEMB      187             0.0000000000
     21630       187  CHL1      H23A           30.1866008878       32.2767967435       -4.7751550000  MEMB      187             0.0000000000
     21631       187  CHL1      H23B           31.2654558729       33.6621445478       -5.1235150000  MEMB      187             0.0000000000
     21632       187  CHL1      C24            29.6807414843       34.0903756941       -3.6677150000  MEMB      187             0.0000000000
     21633       187  CHL1      H24A           29.8259504858       35.1797059276       -3.8307950000  MEMB      187             0.0000000000
     21634       187  CHL1      H24B           28.5837742873       33.9230620151       -3.6129350000  MEMB      187             0.0000000000
     21635       187  CHL1      C25            30.4094673016       33.6234884596       -2.3955450000  MEMB      187             0.0000000000
     21636       187  CHL1      H25            31.5057691573       33.5409029280       -2.5556050000  MEMB      187             0.0000000000
     21637       187  CHL1      C26            30.1917206271       34.5843727691       -1.1975650000  MEMB      187             0.0000000000
     21638       187  CHL1      H26A           30.1423362008       35.6694712227       -1.4308750000  MEMB      187             0.0000000000
     21639       187  CHL1      H26B           29.2190267736       34.3060245577       -0.7385350000  MEMB      187             0.0000000000
     21640       187  CHL1      H26C           30.9873740507       34.3378015956       -0.4624050000  MEMB      187             0.0000000000
     21641       187  CHL1      C27            29.8559578108       32.3056646474       -1.9133950000  MEMB      187             0.0000000000
     21642       187  CHL1      H27A           28.7795759160       32.5430446781       -1.7742250000  MEMB      187             0.0000000000
     21643       187  CHL1      H27B           29.8820426318       31.4683681851       -2.6431750000  MEMB      187             0.0000000000
     21644       187  CHL1      H27C           30.2043318480       31.9305139587       -0.9273850000  MEMB      187             0.0000000000
     21645       188  POPC      N              33.2261588722      -32.5847934089      -17.5972231229  MEMB      188             0.0000000000
     21646       188  POPC      C12            32.7250715968      -31.3049881884      -18.1895119881  MEMB      188             0.0000000000
     21647       188  POPC      H12A           33.5297947828      -30.5853462450      -18.1589196471  MEMB      188             0.0000000000
     21648       188  POPC      H12B           31.7937321701      -30.9819841993      -17.7482917325  MEMB      188             0.0000000000
     21649       188  POPC      C13            32.3090227517      -33.7859252267      -17.7965935963  MEMB      188             0.0000000000
     21650       188  POPC      H13A           32.0754418132      -33.8564722668      -18.8486691934  MEMB      188             0.0000000000
     21651       188  POPC      H13B           32.7038605003      -34.7219284824      -17.4299864096  MEMB      188             0.0000000000
     21652       188  POPC      H13C           31.3139086662      -33.6635389286      -17.3951341583  MEMB      188             0.0000000000
     21653       188  POPC      C14            34.5732279759      -32.9948270642      -18.2000961860  MEMB      188             0.0000000000
     21654       188  POPC      H14A           34.7933876606      -34.0042017286      -17.8853066610  MEMB      188             0.0000000000
     21655       188  POPC      H14B           34.4942476168      -33.0977322342      -19.2722774017  MEMB      188             0.0000000000
     21656       188  POPC      H14C           35.3307390890      -32.3398597116      -17.7956278419  MEMB      188             0.0000000000
     21657       188  POPC      C15            33.4290864908      -32.4080994112      -16.1234865062  MEMB      188             0.0000000000
     21658       188  POPC      H15A           33.6833520129      -33.3658089589      -15.6939035845  MEMB      188             0.0000000000
     21659       188  POPC      H15B           32.5707865884      -32.0210269386      -15.5944343826  MEMB      188             0.0000000000
     21660       188  POPC      H15C           34.2603903645      -31.7464195974      -15.9298017481  MEMB      188             0.0000000000
     21661       188  POPC      C11            32.4833219937      -31.2562516784      -19.7816084931  MEMB      188             0.0000000000
     21662       188  POPC      H11A           33.4402716008      -31.5081856271      -20.2866803699  MEMB      188             0.0000000000
     21663       188  POPC      H11B           32.2838090072      -30.1960320219      -20.0470323456  MEMB      188             0.0000000000
     21664       188  POPC      P              29.9686122001      -31.9451836314      -20.3040316030  MEMB      188             0.0000000000
     21665       188  POPC      O13            29.2710694156      -33.2559420758      -20.2141979296  MEMB      188             0.0000000000
     21666       188  POPC      O14            29.6971570248      -31.1240123470      -21.5139423078  MEMB      188             0.0000000000
     21667       188  POPC      O12            31.5667748936      -32.2010140127      -20.2623867656  MEMB      188             0.0000000000
     21668       188  POPC      O11            29.5982212637      -31.1365574565      -19.0169215252  MEMB      188             0.0000000000
     21669       188  POPC      C1             29.8149641178      -29.6646634003      -19.0766254508  MEMB      188             0.0000000000
     21670       188  POPC      HA             28.9399040232      -29.2822407396      -19.6443786410  MEMB      188             0.0000000000
     21671       188  POPC      HB             30.6935675878      -29.2780465682      -19.6360040433  MEMB      188             0.0000000000
     21672       188  POPC      C2             29.6895744657      -28.9639342581      -17.6833740201  MEMB      188             0.0000000000
     21673       188  POPC      HS             30.1728608064      -27.9766406648      -17.8446399940  MEMB      188             0.0000000000
     21674       188  POPC      O21            30.3568210499      -29.7396406886      -16.6694171997  MEMB      188             0.0000000000
     21675       188  POPC      C21            30.7141549764      -29.0836071652      -15.5670861895  MEMB      188             0.0000000000
     21676       188  POPC      O22            30.5985349185      -27.8735766138      -15.4432512795  MEMB      188             0.0000000000
     21677       188  POPC      C22            31.1853550503      -30.0098286478      -14.4817111767  MEMB      188             0.0000000000
     21678       188  POPC      H2R            31.9979194215      -30.7070804941      -14.7781903742  MEMB      188             0.0000000000
     21679       188  POPC      H2S            30.3807153430      -30.6153737925      -14.0124660321  MEMB      188             0.0000000000
     21680       188  POPC      C3             28.2086635660      -28.7717845516      -17.3893559737  MEMB      188             0.0000000000
     21681       188  POPC      HX             27.8052823530      -28.2216438663      -18.2662540530  MEMB      188             0.0000000000
     21682       188  POPC      HY             28.2322373566      -28.1386706477      -16.4767051119  MEMB      188             0.0000000000
     21683       188  POPC      O31            27.5459524424      -30.0071395915      -17.3774920787  MEMB      188             0.0000000000
     21684       188  POPC      C31            27.1740018434      -30.5022496423      -16.1997338100  MEMB      188             0.0000000000
     21685       188  POPC      O32            27.2363121147      -29.9578746119      -15.1164965544  MEMB      188             0.0000000000
     21686       188  POPC      C32            26.4865920487      -31.8139534261      -16.4582869318  MEMB      188             0.0000000000
     21687       188  POPC      H2X            25.8598967320      -31.7969491682      -17.3755029429  MEMB      188             0.0000000000
     21688       188  POPC      H2Y            25.8234562330      -32.1493636845      -15.6324103825  MEMB      188             0.0000000000
     21689       188  POPC      C23            31.7578681088      -29.3155907393      -13.2350079106  MEMB      188             0.0000000000
     21690       188  POPC      H3R            31.1868504940      -28.4497494510      -12.8367884123  MEMB      188             0.0000000000
     21691       188  POPC      H3S            32.6303002123      -28.7288855595      -13.5941184177  MEMB      188             0.0000000000
     21692       188  POPC      C24            32.3330488047      -30.2126480103      -12.1941518576  MEMB      188             0.0000000000
     21693       188  POPC      H4R            32.9358733024      -31.0564735877      -12.5927520688  MEMB      188             0.0000000000
     21694       188  POPC      H4S            31.3914865760      -30.5952392798      -11.7453694526  MEMB      188             0.0000000000
     21695       188  POPC      C25            33.0951146807      -29.3644451484      -11.1451752447  MEMB      188             0.0000000000
     21696       188  POPC      H5R            32.9272624828      -28.2663309034      -11.1280949309  MEMB      188             0.0000000000
     21697       188  POPC      H5S            34.1066903118      -29.3517898081      -11.6043872745  MEMB      188             0.0000000000
     21698       188  POPC      C26            33.1150488379      -29.8741820268       -9.7165417924  MEMB      188             0.0000000000
     21699       188  POPC      H6R            33.9718577140      -29.3369252853       -9.2565906687  MEMB      188             0.0000000000
     21700       188  POPC      H6S            33.3750471367      -30.9503890217       -9.6243428788  MEMB      188             0.0000000000
     21701       188  POPC      C27            31.8663268548      -29.5174873343       -8.8821915681  MEMB      188             0.0000000000
     21702       188  POPC      H7R            31.0671511971      -30.2823552477       -8.9852283684  MEMB      188             0.0000000000
     21703       188  POPC      H7S            31.3835777050      -28.6401372773       -9.3633682881  MEMB      188             0.0000000000
     21704       188  POPC      C28            32.1014194331      -29.3986986682       -7.4039417043  MEMB      188             0.0000000000
     21705       188  POPC      H8R            31.0899059787      -29.1460920822       -7.0200780031  MEMB      188             0.0000000000
     21706       188  POPC      H8S            32.8200965978      -28.5679772937       -7.2374307880  MEMB      188             0.0000000000
     21707       188  POPC      C29            32.4494138187      -30.6802192845       -6.7310729369  MEMB      188             0.0000000000
     21708       188  POPC      H91            31.7243356077      -31.4738177326       -6.9644456282  MEMB      188             0.0000000000
     21709       188  POPC      C210           33.5757128368      -30.9671678383       -6.0624961524  MEMB      188             0.0000000000
     21710       188  POPC      H101           33.6922240179      -31.9374025729       -5.5574520591  MEMB      188             0.0000000000
     21711       188  POPC      C211           34.7639483319      -30.0541328512       -5.8118173307  MEMB      188             0.0000000000
     21712       188  POPC      H11R           35.3501569755      -29.9580386833       -6.7506713028  MEMB      188             0.0000000000
     21713       188  POPC      H11S           35.3478480854      -30.5962015757       -5.0375153548  MEMB      188             0.0000000000
     21714       188  POPC      C212           34.7404013717      -28.6331197547       -5.1977920692  MEMB      188             0.0000000000
     21715       188  POPC      H12R           34.0845683389      -27.9421145520       -5.7693831053  MEMB      188             0.0000000000
     21716       188  POPC      H12S           35.7735150500      -28.2257290717       -5.2298747335  MEMB      188             0.0000000000
     21717       188  POPC      C213           34.3018255738      -28.6173169906       -3.7528974533  MEMB      188             0.0000000000
     21718       188  POPC      H13R           34.9951904988      -29.2945588776       -3.2098420238  MEMB      188             0.0000000000
     21719       188  POPC      H13S           33.2470267657      -28.9360074495       -3.6109226100  MEMB      188             0.0000000000
     21720       188  POPC      C214           34.3246388994      -27.1606057431       -3.1695183153  MEMB      188             0.0000000000
     21721       188  POPC      H14R           33.5717992340      -26.6160326066       -3.7786119440  MEMB      188             0.0000000000
     21722       188  POPC      H14S           35.2610309928      -26.6337590241       -3.4522266489  MEMB      188             0.0000000000
     21723       188  POPC      C215           33.8449925419      -26.9754813526       -1.6349662929  MEMB      188             0.0000000000
     21724       188  POPC      H15R           32.8663568963      -27.4976867537       -1.5725581460  MEMB      188             0.0000000000
     21725       188  POPC      H15S           33.8401082517      -25.8652386737       -1.5942385445  MEMB      188             0.0000000000
     21726       188  POPC      C216           34.7332031476      -27.4961918288       -0.4928522118  MEMB      188             0.0000000000
     21727       188  POPC      H16R           35.7825001955      -27.5422421369       -0.8550333012  MEMB      188             0.0000000000
     21728       188  POPC      H16S           34.3566495826      -28.4804537520       -0.1410606355  MEMB      188             0.0000000000
     21729       188  POPC      C217           34.5005470078      -26.5089365053        0.6807294340  MEMB      188             0.0000000000
     21730       188  POPC      H17R           33.4557889860      -26.5059380733        1.0586079086  MEMB      188             0.0000000000
     21731       188  POPC      H17S           34.9388116779      -25.5269984243        0.4013677088  MEMB      188             0.0000000000
     21732       188  POPC      C218           35.3323518178      -26.9048502757        1.8864335433  MEMB      188             0.0000000000
     21733       188  POPC      H18R           36.3852220869      -27.1577237008        1.6377570447  MEMB      188             0.0000000000
     21734       188  POPC      H18S           35.0123348130      -27.9023765105        2.2563681996  MEMB      188             0.0000000000
     21735       188  POPC      H18T           35.2183796093      -26.3533472854        2.8441277427  MEMB      188             0.0000000000
     21736       188  POPC      C33            27.4258802933      -33.0008061118      -16.7373385032  MEMB      188             0.0000000000
     21737       188  POPC      H3X            28.1908039178      -32.7287508692      -17.4957570906  MEMB      188             0.0000000000
     21738       188  POPC      H3Y            26.6951551459      -33.7475918087      -17.1150588905  MEMB      188             0.0000000000
     21739       188  POPC      C34            28.0662099644      -33.6182530055      -15.5144779743  MEMB      188             0.0000000000
     21740       188  POPC      H4X            28.2593907978      -34.6751645342      -15.7972150658  MEMB      188             0.0000000000
     21741       188  POPC      H4Y            27.2634231843      -33.8264212901      -14.7752076480  MEMB      188             0.0000000000
     21742       188  POPC      C35            29.3447669698      -33.0330804771      -15.0163037407  MEMB      188             0.0000000000
     21743       188  POPC      H5X            29.2450943541      -31.9265924709      -15.0247134768  MEMB      188             0.0000000000
     21744       188  POPC      H5Y            30.0743580470      -33.2256255042      -15.8317449942  MEMB      188             0.0000000000
     21745       188  POPC      C36            29.7030784679      -33.7032130361      -13.6001371606  MEMB      188             0.0000000000
     21746       188  POPC      H6X            30.7928024628      -33.7963275437      -13.4048114964  MEMB      188             0.0000000000
     21747       188  POPC      H6Y            29.2656429222      -34.7215643285      -13.5231194371  MEMB      188             0.0000000000
     21748       188  POPC      C37            29.0609956948      -32.8180204243      -12.4068236522  MEMB      188             0.0000000000
     21749       188  POPC      H7X            27.9723801068      -32.6676073954      -12.5699593694  MEMB      188             0.0000000000
     21750       188  POPC      H7Y            29.5325840684      -31.8248940627      -12.5669025902  MEMB      188             0.0000000000
     21751       188  POPC      C38            29.2387275186      -33.4503553774      -11.0060537697  MEMB      188             0.0000000000
     21752       188  POPC      H8X            30.3117473309      -33.7052469627      -10.8719645547  MEMB      188             0.0000000000
     21753       188  POPC      H8Y            28.4803571762      -34.2611244326      -10.9630516652  MEMB      188             0.0000000000
     21754       188  POPC      C39            28.9112140074      -32.5542838489       -9.8183424120  MEMB      188             0.0000000000
     21755       188  POPC      H9X            27.9009449844      -32.1802558871      -10.0899683359  MEMB      188             0.0000000000
     21756       188  POPC      H9Y            29.6288387716      -31.7155984309       -9.6920799088  MEMB      188             0.0000000000
     21757       188  POPC      C310           28.9625687673      -33.2922433053       -8.4994528400  MEMB      188             0.0000000000
     21758       188  POPC      H10X           29.9733522583      -33.7327596893       -8.3631345818  MEMB      188             0.0000000000
     21759       188  POPC      H10Y           28.1248204372      -34.0143091974       -8.3940004327  MEMB      188             0.0000000000
     21760       188  POPC      C311           28.7597971642      -32.2464611592       -7.3134584205  MEMB      188             0.0000000000
     21761       188  POPC      H11X           27.7792069780      -31.7426203152       -7.4509651318  MEMB      188             0.0000000000
     21762       188  POPC      H11Y           29.4453846799      -31.3815686200       -7.4409404318  MEMB      188             0.0000000000
     21763       188  POPC      C312           28.8661924624      -32.9788136712       -5.9419979317  MEMB      188             0.0000000000
     21764       188  POPC      H12X           29.8709794430      -33.4481677767       -6.0085621359  MEMB      188             0.0000000000
     21765       188  POPC      H12Y           28.1046613446      -33.7869665216       -5.9777880133  MEMB      188             0.0000000000
     21766       188  POPC      C313           28.7787154997      -32.0928616281       -4.5229649607  MEMB      188             0.0000000000
     21767       188  POPC      H13X           29.0158796288      -32.7417125719       -3.6528687502  MEMB      188             0.0000000000
     21768       188  POPC      H13Y           27.6997874466      -31.8835266676       -4.3604393808  MEMB      188             0.0000000000
     21769       188  POPC      C314           29.6579729335      -30.7897888280       -4.6010249591  MEMB      188             0.0000000000
     21770       188  POPC      H14X           29.2679098321      -30.2212487759       -5.4721936865  MEMB      188             0.0000000000
     21771       188  POPC      H14Y           30.6591129558      -31.2431669057       -4.7637765731  MEMB      188             0.0000000000
     21772       188  POPC      C315           29.6721444547      -29.8207497674       -3.3734918696  MEMB      188             0.0000000000
     21773       188  POPC      H15X           28.6858722450      -29.3821796491       -3.1103470959  MEMB      188             0.0000000000
     21774       188  POPC      H15Y           30.3090066576      -28.9470379758       -3.6291386565  MEMB      188             0.0000000000
     21775       188  POPC      C316           30.3171464808      -30.5077735980       -2.1589805201  MEMB      188             0.0000000000
     21776       188  POPC      H16X           30.3765562351      -29.8396954777       -1.2732812765  MEMB      188             0.0000000000
     21777       188  POPC      H16Y           31.3507185456      -30.7327557507       -2.4987345561  MEMB      188             0.0000000000
     21778       188  POPC      H16Z           29.6287459691      -31.3279311522       -1.8627246346  MEMB      188             0.0000000000
     21779       189  SAPE      N             -25.4370668953      -36.3037238663      -22.3597599942  MEMB      189             0.0000000000
     21780       189  SAPE      HN1           -24.6225006331      -36.8612634005      -22.6872217502  MEMB      189             0.0000000000
     21781       189  SAPE      HN2           -26.2448236893      -36.5577626176      -22.9635754539  MEMB      189             0.0000000000
     21782       189  SAPE      HN3           -25.2734882037      -35.2975266155      -22.1538250074  MEMB      189             0.0000000000
     21783       189  SAPE      C12           -25.7374126039      -36.8434473054      -20.9762367608  MEMB      189             0.0000000000
     21784       189  SAPE      H12A          -24.7742745413      -37.2267031609      -20.5764857025  MEMB      189             0.0000000000
     21785       189  SAPE      H12B          -26.4731333067      -37.6602224898      -21.1372164148  MEMB      189             0.0000000000
     21786       189  SAPE      C11           -26.3072763644      -35.6923798354      -20.1070383462  MEMB      189             0.0000000000
     21787       189  SAPE      H11A          -25.6893381794      -34.7845698631      -20.2754264797  MEMB      189             0.0000000000
     21788       189  SAPE      H11B          -26.0632241103      -35.8175059609      -19.0304219254  MEMB      189             0.0000000000
     21789       189  SAPE      P             -28.7499594894      -35.7087563572      -19.2626807008  MEMB      189             0.0000000000
     21790       189  SAPE      O13           -28.2087349548      -35.1303131255      -17.9693063130  MEMB      189             0.0000000000
     21791       189  SAPE      O14           -29.9897370579      -35.0753487105      -19.7377018359  MEMB      189             0.0000000000
     21792       189  SAPE      O12           -27.6403660219      -35.4563172618      -20.3532996582  MEMB      189             0.0000000000
     21793       189  SAPE      O11           -28.8486050099      -37.3352551416      -19.2339763816  MEMB      189             0.0000000000
     21794       189  SAPE      C1            -30.0250410084      -37.9900135083      -18.6894381220  MEMB      189             0.0000000000
     21795       189  SAPE      HA            -30.8514061056      -37.3086847307      -18.3940859459  MEMB      189             0.0000000000
     21796       189  SAPE      HB            -30.2881640552      -38.7061544000      -19.4970452903  MEMB      189             0.0000000000
     21797       189  SAPE      C2            -29.5481171797      -38.9299325473      -17.5448949445  MEMB      189             0.0000000000
     21798       189  SAPE      HS            -30.3658096482      -39.6320720796      -17.2752647294  MEMB      189             0.0000000000
     21799       189  SAPE      O21           -29.3288837554      -38.1984651171      -16.3064269828  MEMB      189             0.0000000000
     21800       189  SAPE      C21           -30.3665387515      -37.7445597328      -15.7141331217  MEMB      189             0.0000000000
     21801       189  SAPE      O22           -31.5536657683      -37.8443617595      -15.9141924215  MEMB      189             0.0000000000
     21802       189  SAPE      C22           -29.9045330206      -36.7620879194      -14.5858409246  MEMB      189             0.0000000000
     21803       189  SAPE      H2R           -29.9565459418      -37.2498096472      -13.5889740712  MEMB      189             0.0000000000
     21804       189  SAPE      H2S           -28.8252890738      -36.5495453598      -14.7419791859  MEMB      189             0.0000000000
     21805       189  SAPE      C3            -28.2314227648      -39.6536926742      -17.8732682995  MEMB      189             0.0000000000
     21806       189  SAPE      HX            -28.2451653604      -40.2199006414      -18.8290615049  MEMB      189             0.0000000000
     21807       189  SAPE      HY            -28.1400190565      -40.3770125481      -17.0349518177  MEMB      189             0.0000000000
     21808       189  SAPE      O31           -27.1147498748      -38.7309234350      -17.9261902525  MEMB      189             0.0000000000
     21809       189  SAPE      C31           -26.5164989761      -38.6313704000      -16.6962667986  MEMB      189             0.0000000000
     21810       189  SAPE      O32           -26.7573787955      -39.2835331446      -15.6754059831  MEMB      189             0.0000000000
     21811       189  SAPE      C32           -25.6264662014      -37.3908172827      -16.7617663012  MEMB      189             0.0000000000
     21812       189  SAPE      H2X           -26.2274722113      -36.5053371681      -17.0601581052  MEMB      189             0.0000000000
     21813       189  SAPE      H2Y           -24.9075514948      -37.5262131459      -17.5979185834  MEMB      189             0.0000000000
     21814       189  SAPE      C23           -30.8074025822      -35.5607050134      -14.4403438320  MEMB      189             0.0000000000
     21815       189  SAPE      H3R           -31.6568062235      -35.8088699513      -13.7685934427  MEMB      189             0.0000000000
     21816       189  SAPE      H3S           -31.3320496973      -35.2038954213      -15.3523492956  MEMB      189             0.0000000000
     21817       189  SAPE      C24           -29.9841207166      -34.4111846920      -13.8569383848  MEMB      189             0.0000000000
     21818       189  SAPE      H4R           -29.2749076676      -34.0559884890      -14.6348674683  MEMB      189             0.0000000000
     21819       189  SAPE      H4S           -29.2531041020      -34.7588280321      -13.0959655874  MEMB      189             0.0000000000
     21820       189  SAPE      C25           -30.7981800708      -33.2155672003      -13.4876118925  MEMB      189             0.0000000000
     21821       189  SAPE      H5R           -31.1547308663      -32.5253831474      -14.2664042831  MEMB      189             0.0000000000
     21822       189  SAPE      C26           -30.9863986476      -32.9124021339      -12.1757597676  MEMB      189             0.0000000000
     21823       189  SAPE      H6R           -31.5689641208      -32.0259154680      -11.8846249897  MEMB      189             0.0000000000
     21824       189  SAPE      C27           -30.4853380355      -33.6096116382      -11.0210522950  MEMB      189             0.0000000000
     21825       189  SAPE      H7R           -29.3754121556      -33.6415518737      -11.0580055050  MEMB      189             0.0000000000
     21826       189  SAPE      H7S           -30.7704798782      -34.6833784646      -11.0147404263  MEMB      189             0.0000000000
     21827       189  SAPE      C28           -30.8574995824      -32.8828167922       -9.6502830244  MEMB      189             0.0000000000
     21828       189  SAPE      H8R           -31.0864035736      -31.8196733923       -9.8155964170  MEMB      189             0.0000000000
     21829       189  SAPE      C29           -31.0068998934      -33.5309606879       -8.5017686034  MEMB      189             0.0000000000
     21830       189  SAPE      H9R           -31.4678787191      -33.0122357195       -7.6482920767  MEMB      189             0.0000000000
     21831       189  SAPE      C210          -30.8890583716      -35.0132044101       -8.1252010035  MEMB      189             0.0000000000
     21832       189  SAPE      H10R          -31.0807678598      -35.0736865440       -7.0325388613  MEMB      189             0.0000000000
     21833       189  SAPE      H10S          -29.8630852427      -35.4130553188       -8.2729150803  MEMB      189             0.0000000000
     21834       189  SAPE      C211          -31.9027404180      -35.9673068695       -8.7830663869  MEMB      189             0.0000000000
     21835       189  SAPE      H11R          -32.4172209579      -35.6170356158       -9.6900501907  MEMB      189             0.0000000000
     21836       189  SAPE      C212          -32.0274175379      -37.2713489032       -8.2800856012  MEMB      189             0.0000000000
     21837       189  SAPE      H12R          -32.7027569523      -38.0036243760       -8.7466571788  MEMB      189             0.0000000000
     21838       189  SAPE      C213          -31.2537361040      -37.8734534787       -7.1095069504  MEMB      189             0.0000000000
     21839       189  SAPE      H13R          -30.3279338164      -37.2626239474       -7.0454893143  MEMB      189             0.0000000000
     21840       189  SAPE      H13S          -30.9186956964      -38.8795586154       -7.4408999565  MEMB      189             0.0000000000
     21841       189  SAPE      C214          -32.0080548585      -37.9551984484       -5.7918704838  MEMB      189             0.0000000000
     21842       189  SAPE      H14R          -32.8545776771      -38.6575942954       -5.7981435423  MEMB      189             0.0000000000
     21843       189  SAPE      C215          -31.8920578916      -37.2985928666       -4.6631192955  MEMB      189             0.0000000000
     21844       189  SAPE      H15R          -32.5941558658      -37.4476760640       -3.8295520454  MEMB      189             0.0000000000
     21845       189  SAPE      C216          -30.8999280561      -36.2334286589       -4.3423434525  MEMB      189             0.0000000000
     21846       189  SAPE      H16R          -30.2838740131      -36.1327617370       -5.2613999054  MEMB      189             0.0000000000
     21847       189  SAPE      H16S          -30.3558803293      -36.5019019573       -3.4116156467  MEMB      189             0.0000000000
     21848       189  SAPE      C217          -31.4747799194      -34.8514938041       -4.0384261615  MEMB      189             0.0000000000
     21849       189  SAPE      H17R          -31.9763214884      -34.9613744511       -3.0531838128  MEMB      189             0.0000000000
     21850       189  SAPE      H17S          -32.1529168652      -34.5393439551       -4.8612341457  MEMB      189             0.0000000000
     21851       189  SAPE      C218          -30.4041619572      -33.8002566206       -3.9239390757  MEMB      189             0.0000000000
     21852       189  SAPE      H18R          -30.7846389418      -32.7576837166       -3.8729508505  MEMB      189             0.0000000000
     21853       189  SAPE      H18S          -29.7226513795      -33.8760770611       -4.7980762905  MEMB      189             0.0000000000
     21854       189  SAPE      C219          -29.3827304237      -33.9430467137       -2.7345542528  MEMB      189             0.0000000000
     21855       189  SAPE      H19R          -28.8813058061      -34.9166355215       -2.9216884331  MEMB      189             0.0000000000
     21856       189  SAPE      H19S          -30.0543120391      -33.9662844030       -1.8498172867  MEMB      189             0.0000000000
     21857       189  SAPE      C220          -28.4090133164      -32.7588123638       -2.4876047247  MEMB      189             0.0000000000
     21858       189  SAPE      H20R          -27.3742587200      -33.1570915244       -2.5581596372  MEMB      189             0.0000000000
     21859       189  SAPE      H20S          -28.6392683317      -32.2848758487       -1.5095017191  MEMB      189             0.0000000000
     21860       189  SAPE      H20T          -28.5200909922      -31.9647160867       -3.2566277997  MEMB      189             0.0000000000
     21861       189  SAPE      C33           -25.0180293393      -37.1557999163      -15.4218977937  MEMB      189             0.0000000000
     21862       189  SAPE      H3X           -24.1749829760      -36.4322052578      -15.4240548519  MEMB      189             0.0000000000
     21863       189  SAPE      H3Y           -24.5428623372      -38.0172292170      -14.9056835965  MEMB      189             0.0000000000
     21864       189  SAPE      C34           -25.8688198842      -36.4498669468      -14.4445698814  MEMB      189             0.0000000000
     21865       189  SAPE      H4X           -26.4947618268      -37.2518398564      -13.9980751772  MEMB      189             0.0000000000
     21866       189  SAPE      H4Y           -26.5287029064      -35.6223915969      -14.7824451588  MEMB      189             0.0000000000
     21867       189  SAPE      C35           -25.0166542972      -35.9424557476      -13.3523228717  MEMB      189             0.0000000000
     21868       189  SAPE      H5X           -24.5208392638      -35.0061597896      -13.6867447409  MEMB      189             0.0000000000
     21869       189  SAPE      H5Y           -24.2104499159      -36.6366672593      -13.0322816545  MEMB      189             0.0000000000
     21870       189  SAPE      C36           -25.9655922328      -35.4604590311      -12.2148868655  MEMB      189             0.0000000000
     21871       189  SAPE      H6X           -26.8817240871      -34.8446105829      -12.3404024973  MEMB      189             0.0000000000
     21872       189  SAPE      H6Y           -25.3213553597      -34.8434239883      -11.5526572733  MEMB      189             0.0000000000
     21873       189  SAPE      C37           -26.4777910837      -36.6396162517      -11.3231026505  MEMB      189             0.0000000000
     21874       189  SAPE      H7X           -25.5456300765      -37.1986094347      -11.0930516133  MEMB      189             0.0000000000
     21875       189  SAPE      H7Y           -27.1781338503      -37.2235431604      -11.9578231930  MEMB      189             0.0000000000
     21876       189  SAPE      C38           -27.1768108592      -36.2330615914      -10.0663119589  MEMB      189             0.0000000000
     21877       189  SAPE      H8X           -27.4520244621      -37.1562248653       -9.5128241899  MEMB      189             0.0000000000
     21878       189  SAPE      H8Y           -28.1648221949      -35.8430203445      -10.3919226028  MEMB      189             0.0000000000
     21879       189  SAPE      C39           -26.4223207696      -35.3239114090       -9.1072177242  MEMB      189             0.0000000000
     21880       189  SAPE      H9X           -26.1676967662      -34.3288394039       -9.5306793271  MEMB      189             0.0000000000
     21881       189  SAPE      H9Y           -25.4161839351      -35.6713657424       -8.7889644714  MEMB      189             0.0000000000
     21882       189  SAPE      C310          -27.2491086287      -34.9369315083       -7.8941926647  MEMB      189             0.0000000000
     21883       189  SAPE      H10X          -27.7029347349      -35.8140534310       -7.3852523105  MEMB      189             0.0000000000
     21884       189  SAPE      H10Y          -28.0033626353      -34.2854149843       -8.3850569823  MEMB      189             0.0000000000
     21885       189  SAPE      C311          -26.4552222055      -34.1459024103       -6.8030935392  MEMB      189             0.0000000000
     21886       189  SAPE      H11X          -27.2697405368      -33.7836568658       -6.1400252572  MEMB      189             0.0000000000
     21887       189  SAPE      H11Y          -25.9999057276      -33.3099891229       -7.3760303769  MEMB      189             0.0000000000
     21888       189  SAPE      C312          -25.3812956688      -34.9132910909       -5.9540407032  MEMB      189             0.0000000000
     21889       189  SAPE      H12X          -25.1267974663      -34.3146631861       -5.0533763394  MEMB      189             0.0000000000
     21890       189  SAPE      H12Y          -24.4745032330      -35.0832012450       -6.5730548092  MEMB      189             0.0000000000
     21891       189  SAPE      C313          -25.7826248318      -36.3532734139       -5.5294775369  MEMB      189             0.0000000000
     21892       189  SAPE      H13X          -24.8556560882      -36.7063435854       -5.0290861093  MEMB      189             0.0000000000
     21893       189  SAPE      H13Y          -26.0509856291      -36.9673226637       -6.4156194654  MEMB      189             0.0000000000
     21894       189  SAPE      C314          -26.9506096362      -36.3788462704       -4.5033913023  MEMB      189             0.0000000000
     21895       189  SAPE      H14X          -27.7538132885      -35.8266157232       -5.0365198942  MEMB      189             0.0000000000
     21896       189  SAPE      H14Y          -26.6401440842      -35.7937621402       -3.6114210541  MEMB      189             0.0000000000
     21897       189  SAPE      C315          -27.4561056604      -37.7671614269       -4.0660539399  MEMB      189             0.0000000000
     21898       189  SAPE      H15X          -27.3986703253      -38.4855341961       -4.9116086434  MEMB      189             0.0000000000
     21899       189  SAPE      H15Y          -28.5233384233      -37.6314150363       -3.7887307330  MEMB      189             0.0000000000
     21900       189  SAPE      C316          -26.6906383779      -38.3690183993       -2.8622680989  MEMB      189             0.0000000000
     21901       189  SAPE      H16X          -27.1121994986      -37.8034932125       -2.0039050900  MEMB      189             0.0000000000
     21902       189  SAPE      H16Y          -25.6517015417      -38.0247771811       -3.0531323511  MEMB      189             0.0000000000
     21903       189  SAPE      C317          -26.7993630795      -39.8729739018       -2.7509820920  MEMB      189             0.0000000000
     21904       189  SAPE      H17X          -26.4018177842      -40.2719857628       -3.7086193614  MEMB      189             0.0000000000
     21905       189  SAPE      H17Y          -27.8783191850      -40.0982818280       -2.6116571159  MEMB      189             0.0000000000
     21906       189  SAPE      C318          -26.0901021905      -40.4751112426       -1.5259564680  MEMB      189             0.0000000000
     21907       189  SAPE      H18X          -26.7484282368      -40.3254835097       -0.6436080200  MEMB      189             0.0000000000
     21908       189  SAPE      H18Y          -25.0408761719      -40.1101936840       -1.5427230327  MEMB      189             0.0000000000
     21909       189  SAPE      H18Z          -25.9977632071      -41.5552322738       -1.7691276064  MEMB      189             0.0000000000
     21910       190  SAPC      N             -34.3942836393      -30.9523522396      -21.9927564895  MEMB      190             0.0000000000
     21911       190  SAPC      C12           -34.7304044475      -32.3251765172      -21.4058984233  MEMB      190             0.0000000000
     21912       190  SAPC      H12A          -34.3729218535      -33.1218378335      -22.0414586636  MEMB      190             0.0000000000
     21913       190  SAPC      H12B          -35.8089655624      -32.2966698455      -21.3580105361  MEMB      190             0.0000000000
     21914       190  SAPC      C13           -34.8265616741      -31.0417999634      -23.3953902891  MEMB      190             0.0000000000
     21915       190  SAPC      H13A          -35.8787624837      -31.2667996896      -23.4883877231  MEMB      190             0.0000000000
     21916       190  SAPC      H13B          -34.6474189037      -30.1105547311      -23.9121980535  MEMB      190             0.0000000000
     21917       190  SAPC      H13C          -34.2795570452      -31.7512817563      -23.9985665105  MEMB      190             0.0000000000
     21918       190  SAPC      C14           -35.0376816661      -29.7839457122      -21.3401169103  MEMB      190             0.0000000000
     21919       190  SAPC      H14A          -36.0676673413      -29.7150837982      -21.6575873188  MEMB      190             0.0000000000
     21920       190  SAPC      H14B          -34.9466601514      -29.8652550221      -20.2670352976  MEMB      190             0.0000000000
     21921       190  SAPC      H14C          -34.5661343213      -28.8760851702      -21.6862848734  MEMB      190             0.0000000000
     21922       190  SAPC      C15           -32.8614081025      -30.8153686331      -22.0216886305  MEMB      190             0.0000000000
     21923       190  SAPC      H15A          -32.4663753699      -30.9795530833      -21.0300272017  MEMB      190             0.0000000000
     21924       190  SAPC      H15B          -32.3628160873      -31.5381848953      -22.6504513602  MEMB      190             0.0000000000
     21925       190  SAPC      H15C          -32.6818708818      -29.8253953555      -22.4142689806  MEMB      190             0.0000000000
     21926       190  SAPC      C11           -34.3515852996      -32.4707406316      -19.9081880292  MEMB      190             0.0000000000
     21927       190  SAPC      H11A          -33.2479325928      -32.4872459662      -19.7817004909  MEMB      190             0.0000000000
     21928       190  SAPC      H11B          -34.7054750921      -33.4536031601      -19.5299498054  MEMB      190             0.0000000000
     21929       190  SAPC      P             -35.9071384654      -31.3484798229      -17.9848419606  MEMB      190             0.0000000000
     21930       190  SAPC      O13           -35.7538834240      -30.1108578631      -17.2621115125  MEMB      190             0.0000000000
     21931       190  SAPC      O14           -37.2494740687      -31.6402235199      -18.5505630331  MEMB      190             0.0000000000
     21932       190  SAPC      O12           -34.7990131280      -31.4157281551      -19.1142064536  MEMB      190             0.0000000000
     21933       190  SAPC      O11           -35.4251464707      -32.5257525631      -17.0242382682  MEMB      190             0.0000000000
     21934       190  SAPC      C1            -35.9705769068      -33.8559815914      -17.2082303142  MEMB      190             0.0000000000
     21935       190  SAPC      HA            -36.9671470362      -33.8388939841      -16.7174380798  MEMB      190             0.0000000000
     21936       190  SAPC      HB            -36.0803325063      -34.1264762223      -18.2801945715  MEMB      190             0.0000000000
     21937       190  SAPC      C2            -35.0171373429      -34.8518596697      -16.5468282920  MEMB      190             0.0000000000
     21938       190  SAPC      HS            -35.4453639362      -35.8766099582      -16.5756342212  MEMB      190             0.0000000000
     21939       190  SAPC      O21           -34.7136484375      -34.5886072633      -15.1863379865  MEMB      190             0.0000000000
     21940       190  SAPC      C21           -35.6797768568      -34.9246774543      -14.3554458132  MEMB      190             0.0000000000
     21941       190  SAPC      O22           -36.8541145394      -35.1550764914      -14.5979896872  MEMB      190             0.0000000000
     21942       190  SAPC      C22           -34.9699392808      -35.0938682314      -12.9066479681  MEMB      190             0.0000000000
     21943       190  SAPC      H2R           -33.9853115846      -35.6004380411      -12.9972919711  MEMB      190             0.0000000000
     21944       190  SAPC      H2S           -34.6274304591      -34.0679779986      -12.6525651449  MEMB      190             0.0000000000
     21945       190  SAPC      C3            -33.5550812876      -34.9377167734      -17.3127741812  MEMB      190             0.0000000000
     21946       190  SAPC      HX            -33.5337219922      -35.2209360691      -18.3868559888  MEMB      190             0.0000000000
     21947       190  SAPC      HY            -33.0280982021      -35.6854189501      -16.6822575691  MEMB      190             0.0000000000
     21948       190  SAPC      O31           -32.7908844373      -33.7219533403      -17.2901388898  MEMB      190             0.0000000000
     21949       190  SAPC      C31           -31.7820401021      -33.4884122982      -16.4240091574  MEMB      190             0.0000000000
     21950       190  SAPC      O32           -31.1903070648      -34.2991947456      -15.8229349476  MEMB      190             0.0000000000
     21951       190  SAPC      C32           -31.4132608103      -32.0231577953      -16.4549434819  MEMB      190             0.0000000000
     21952       190  SAPC      H2X           -32.0290865573      -31.4776943319      -17.2016358825  MEMB      190             0.0000000000
     21953       190  SAPC      H2Y           -30.3755977857      -32.0542035220      -16.8506859639  MEMB      190             0.0000000000
     21954       190  SAPC      C23           -35.8360939519      -35.8897082352      -11.8280356917  MEMB      190             0.0000000000
     21955       190  SAPC      H3R           -35.9213989438      -36.9311384751      -12.2054841218  MEMB      190             0.0000000000
     21956       190  SAPC      H3S           -36.8233860888      -35.3905983825      -11.9303316712  MEMB      190             0.0000000000
     21957       190  SAPC      C24           -35.1556568873      -35.7780148644      -10.4233616675  MEMB      190             0.0000000000
     21958       190  SAPC      H4R           -34.0707191394      -35.9470821707      -10.5926169279  MEMB      190             0.0000000000
     21959       190  SAPC      H4S           -35.5364294875      -36.6442451695       -9.8411432202  MEMB      190             0.0000000000
     21960       190  SAPC      C25           -35.4603092883      -34.5505903691       -9.4879106576  MEMB      190             0.0000000000
     21961       190  SAPC      H5R           -35.7095089974      -33.6905065568      -10.1267810973  MEMB      190             0.0000000000
     21962       190  SAPC      C26           -35.3951085027      -34.6100124164       -8.1600744994  MEMB      190             0.0000000000
     21963       190  SAPC      H6R           -35.6228294081      -33.6692976515       -7.6373902697  MEMB      190             0.0000000000
     21964       190  SAPC      C27           -34.9765846842      -35.6948267835       -7.2476464126  MEMB      190             0.0000000000
     21965       190  SAPC      H7R           -34.5412908968      -36.5183743181       -7.8531288214  MEMB      190             0.0000000000
     21966       190  SAPC      H7S           -35.8212047290      -36.0612377140       -6.6258090833  MEMB      190             0.0000000000
     21967       190  SAPC      C28           -33.7022233042      -35.2836180194       -6.4660308615  MEMB      190             0.0000000000
     21968       190  SAPC      H8R           -33.0186424112      -34.5872865341       -6.9738101684  MEMB      190             0.0000000000
     21969       190  SAPC      C29           -33.2805903559      -35.6300288615       -5.2148477697  MEMB      190             0.0000000000
     21970       190  SAPC      H9R           -32.3531386699      -35.0944192719       -4.9639378222  MEMB      190             0.0000000000
     21971       190  SAPC      C210          -33.9843797131      -36.5522591708       -4.1899342628  MEMB      190             0.0000000000
     21972       190  SAPC      H10R          -33.4274367488      -36.2530919888       -3.2763497544  MEMB      190             0.0000000000
     21973       190  SAPC      H10S          -33.8464140587      -37.6265658628       -4.4372224093  MEMB      190             0.0000000000
     21974       190  SAPC      C211          -35.4120395021      -36.2849324663       -3.8979446490  MEMB      190             0.0000000000
     21975       190  SAPC      H11R          -35.9160021184      -35.5436234162       -4.5355050845  MEMB      190             0.0000000000
     21976       190  SAPC      C212          -36.0955044959      -36.8444339137       -2.9109463437  MEMB      190             0.0000000000
     21977       190  SAPC      H12R          -37.1656445812      -36.5941770277       -2.8643488019  MEMB      190             0.0000000000
     21978       190  SAPC      C213          -35.5709407744      -37.8316208747       -1.8998793172  MEMB      190             0.0000000000
     21979       190  SAPC      H13R          -34.8168383205      -38.5249468889       -2.3299380418  MEMB      190             0.0000000000
     21980       190  SAPC      H13S          -36.4203858608      -38.4795325309       -1.5949628177  MEMB      190             0.0000000000
     21981       190  SAPC      C214          -34.9159507589      -37.0955197459       -0.7972803092  MEMB      190             0.0000000000
     21982       190  SAPC      H14R          -35.3447503233      -36.0827436190       -0.7768947313  MEMB      190             0.0000000000
     21983       190  SAPC      C215          -33.9045725060      -37.5413512956       -0.0030768133  MEMB      190             0.0000000000
     21984       190  SAPC      H15R          -33.6562551076      -36.9273946029        0.8752154001  MEMB      190             0.0000000000
     21985       190  SAPC      C216          -33.2552935172      -38.9452398472       -0.1088588170  MEMB      190             0.0000000000
     21986       190  SAPC      H16R          -33.4619364320      -39.4806009809       -1.0601784034  MEMB      190             0.0000000000
     21987       190  SAPC      H16S          -33.7541785177      -39.6180379861        0.6210572352  MEMB      190             0.0000000000
     21988       190  SAPC      C217          -31.7035940990      -39.2085664147       -0.0054945067  MEMB      190             0.0000000000
     21989       190  SAPC      H17R          -31.6427279741      -40.2635732291        0.3374035554  MEMB      190             0.0000000000
     21990       190  SAPC      H17S          -31.1880679834      -38.5984072673        0.7666851723  MEMB      190             0.0000000000
     21991       190  SAPC      C218          -31.0455029087      -39.0971048014       -1.3769855177  MEMB      190             0.0000000000
     21992       190  SAPC      H18R          -31.4498539399      -39.7574443410       -2.1737112573  MEMB      190             0.0000000000
     21993       190  SAPC      H18S          -29.9982469447      -39.4664133074       -1.3425413281  MEMB      190             0.0000000000
     21994       190  SAPC      C219          -31.0050697814      -37.6752884290       -2.0772810222  MEMB      190             0.0000000000
     21995       190  SAPC      H19R          -32.0563217653      -37.3651883345       -2.2590183778  MEMB      190             0.0000000000
     21996       190  SAPC      H19S          -30.4543189213      -37.7582634173       -3.0385871339  MEMB      190             0.0000000000
     21997       190  SAPC      C220          -30.2840225125      -36.5401430703       -1.3129140339  MEMB      190             0.0000000000
     21998       190  SAPC      H20R          -29.1877860708      -36.5249582071       -1.4927911702  MEMB      190             0.0000000000
     21999       190  SAPC      H20S          -30.6646465657      -36.4691585367       -0.2715644795  MEMB      190             0.0000000000
     22000       190  SAPC      H20T          -30.6966231281      -35.6017830833       -1.7413570314  MEMB      190             0.0000000000
     22001       190  SAPC      C33           -31.4135187848      -31.4647529434      -15.0237313911  MEMB      190             0.0000000000
     22002       190  SAPC      H3X           -30.9627081631      -30.4514134220      -14.9586645720  MEMB      190             0.0000000000
     22003       190  SAPC      H3Y           -30.8242191323      -32.1094963516      -14.3371802032  MEMB      190             0.0000000000
     22004       190  SAPC      C34           -32.8591156299      -31.3013247104      -14.4475023819  MEMB      190             0.0000000000
     22005       190  SAPC      H4X           -33.1365461739      -32.2877383020      -14.0181517831  MEMB      190             0.0000000000
     22006       190  SAPC      H4Y           -33.5835689052      -30.9758121860      -15.2243743962  MEMB      190             0.0000000000
     22007       190  SAPC      C35           -32.8975217489      -30.1914693531      -13.3497771266  MEMB      190             0.0000000000
     22008       190  SAPC      H5X           -32.6859776372      -29.1983319920      -13.8006078609  MEMB      190             0.0000000000
     22009       190  SAPC      H5Y           -32.1757061877      -30.3937056764      -12.5297746763  MEMB      190             0.0000000000
     22010       190  SAPC      C36           -34.2922785820      -30.0378192576      -12.6860580846  MEMB      190             0.0000000000
     22011       190  SAPC      H6X           -34.9101939936      -29.8021221191      -13.5787775992  MEMB      190             0.0000000000
     22012       190  SAPC      H6Y           -34.1885185743      -29.1576884837      -12.0160398337  MEMB      190             0.0000000000
     22013       190  SAPC      C37           -34.9068099051      -31.2473215555      -11.9914351026  MEMB      190             0.0000000000
     22014       190  SAPC      H7X           -34.0529762962      -31.7614118734      -11.5005172626  MEMB      190             0.0000000000
     22015       190  SAPC      H7Y           -35.3307664213      -31.8867720744      -12.7949801591  MEMB      190             0.0000000000
     22016       190  SAPC      C38           -36.0211797927      -30.9467459975      -11.0131466156  MEMB      190             0.0000000000
     22017       190  SAPC      H8X           -36.5249332386      -31.8465700830      -10.5997826793  MEMB      190             0.0000000000
     22018       190  SAPC      H8Y           -36.7960341015      -30.3354787076      -11.5233170763  MEMB      190             0.0000000000
     22019       190  SAPC      C39           -35.5749503832      -30.1042388307       -9.7625978789  MEMB      190             0.0000000000
     22020       190  SAPC      H9X           -36.4025534648      -29.7231939871       -9.1268310119  MEMB      190             0.0000000000
     22021       190  SAPC      H9Y           -35.0817565115      -29.1635262332      -10.0883903303  MEMB      190             0.0000000000
     22022       190  SAPC      C310          -34.6032662080      -30.8066243065       -8.8117102908  MEMB      190             0.0000000000
     22023       190  SAPC      H10X          -33.7683493544      -31.3158324493       -9.3389125875  MEMB      190             0.0000000000
     22024       190  SAPC      H10Y          -35.0334157154      -31.7208783065       -8.3497232378  MEMB      190             0.0000000000
     22025       190  SAPC      C311          -34.0379422061      -29.8967695455       -7.6515606040  MEMB      190             0.0000000000
     22026       190  SAPC      H11X          -33.9368751527      -28.8720622090       -8.0687908620  MEMB      190             0.0000000000
     22027       190  SAPC      H11Y          -33.0381395152      -30.3101647039       -7.3989337779  MEMB      190             0.0000000000
     22028       190  SAPC      C312          -34.9630637878      -29.9447455620       -6.4480933446  MEMB      190             0.0000000000
     22029       190  SAPC      H12X          -35.9428456100      -29.6545859027       -6.8841620112  MEMB      190             0.0000000000
     22030       190  SAPC      H12Y          -34.7356977590      -29.1077967626       -5.7537285177  MEMB      190             0.0000000000
     22031       190  SAPC      C313          -34.8738264199      -31.2392198940       -5.6426362627  MEMB      190             0.0000000000
     22032       190  SAPC      H13X          -33.8049080538      -31.3768389356       -5.3728293856  MEMB      190             0.0000000000
     22033       190  SAPC      H13Y          -35.1536424923      -32.1428859665       -6.2252265506  MEMB      190             0.0000000000
     22034       190  SAPC      C314          -35.6562365112      -31.1335909580       -4.4389446127  MEMB      190             0.0000000000
     22035       190  SAPC      H14X          -36.6787792852      -30.7631768457       -4.6659263200  MEMB      190             0.0000000000
     22036       190  SAPC      H14Y          -35.2221456938      -30.4393913629       -3.6879637538  MEMB      190             0.0000000000
     22037       190  SAPC      C315          -35.7625757153      -32.5003702544       -3.6683177617  MEMB      190             0.0000000000
     22038       190  SAPC      H15X          -34.7507990338      -32.6291624315       -3.2278156224  MEMB      190             0.0000000000
     22039       190  SAPC      H15Y          -35.8248790326      -33.2462543737       -4.4893516199  MEMB      190             0.0000000000
     22040       190  SAPC      C316          -36.8164638410      -32.8059102885       -2.6853566823  MEMB      190             0.0000000000
     22041       190  SAPC      H16X          -36.8114908419      -33.8454976023       -2.2934973698  MEMB      190             0.0000000000
     22042       190  SAPC      H16Y          -37.7826550118      -32.6516446409       -3.2116621119  MEMB      190             0.0000000000
     22043       190  SAPC      C317          -36.7491847243      -31.8306211226       -1.5203162118  MEMB      190             0.0000000000
     22044       190  SAPC      H17X          -37.7952311537      -31.5864740103       -1.2365901233  MEMB      190             0.0000000000
     22045       190  SAPC      H17Y          -36.3991159704      -30.8091077866       -1.7816270071  MEMB      190             0.0000000000
     22046       190  SAPC      C318          -36.1575790065      -32.4702430376       -0.2757171032  MEMB      190             0.0000000000
     22047       190  SAPC      H18X          -36.0986368880      -31.7402438997        0.5597164000  MEMB      190             0.0000000000
     22048       190  SAPC      H18Y          -35.1188883352      -32.8240203561       -0.4497413876  MEMB      190             0.0000000000
     22049       190  SAPC      H18Z          -36.7519631243      -33.3359563862        0.0870082430  MEMB      190             0.0000000000
     22050       191  SLPC      N             -35.5907025807       27.7588059476      -17.1515831013  MEMB      191             0.0000000000
     22051       191  SLPC      C13           -35.7495646916       29.0159031093      -17.9149858564  MEMB      191             0.0000000000
     22052       191  SLPC      H13A          -34.8097913683       29.5392237541      -17.8182305916  MEMB      191             0.0000000000
     22053       191  SLPC      H13B          -35.8182535134       28.6702821729      -18.9358817185  MEMB      191             0.0000000000
     22054       191  SLPC      H13C          -36.5147039654       29.6298073066      -17.4632300008  MEMB      191             0.0000000000
     22055       191  SLPC      C14           -35.1457265284       28.1980155081      -15.7579238461  MEMB      191             0.0000000000
     22056       191  SLPC      H14A          -34.0894682518       28.4230030241      -15.7678726426  MEMB      191             0.0000000000
     22057       191  SLPC      H14B          -35.7451616326       29.0399933765      -15.4446334828  MEMB      191             0.0000000000
     22058       191  SLPC      H14C          -35.2756330846       27.3516444031      -15.0997596565  MEMB      191             0.0000000000
     22059       191  SLPC      C15           -34.5185067143       26.9712304384      -17.8947363890  MEMB      191             0.0000000000
     22060       191  SLPC      H15A          -34.5439548393       26.0321614680      -17.3619118616  MEMB      191             0.0000000000
     22061       191  SLPC      H15B          -34.8620400837       26.8254417183      -18.9082108215  MEMB      191             0.0000000000
     22062       191  SLPC      H15C          -33.5666618561       27.4810934434      -17.8739684400  MEMB      191             0.0000000000
     22063       191  SLPC      C12           -36.9058343039       26.9822396478      -17.0393169236  MEMB      191             0.0000000000
     22064       191  SLPC      H12A          -36.7773748577       26.0338435884      -16.5388741837  MEMB      191             0.0000000000
     22065       191  SLPC      H12B          -37.1589100038       26.7619585394      -18.0658786506  MEMB      191             0.0000000000
     22066       191  SLPC      C11           -38.1784752655       27.6365364504      -16.3943053729  MEMB      191             0.0000000000
     22067       191  SLPC      H11A          -37.9624923671       28.1300145173      -15.4226305653  MEMB      191             0.0000000000
     22068       191  SLPC      H11B          -38.8875705032       26.7911528573      -16.2645695457  MEMB      191             0.0000000000
     22069       191  SLPC      P             -39.8980596738       29.6014559321      -17.0010956945  MEMB      191             0.0000000000
     22070       191  SLPC      O13           -39.9018868531       30.4356517253      -18.1788372226  MEMB      191             0.0000000000
     22071       191  SLPC      O14           -41.1163839063       28.7764437027      -16.6955099884  MEMB      191             0.0000000000
     22072       191  SLPC      O12           -38.6998075432       28.5478191320      -17.3085722940  MEMB      191             0.0000000000
     22073       191  SLPC      O11           -39.5167947760       30.4340830475      -15.6631333112  MEMB      191             0.0000000000
     22074       191  SLPC      C1            -38.3732060479       31.2730756627      -15.7922834322  MEMB      191             0.0000000000
     22075       191  SLPC      HA            -37.5742704448       30.8686704364      -16.4499152048  MEMB      191             0.0000000000
     22076       191  SLPC      HB            -38.6400673774       32.3153989988      -16.0691729173  MEMB      191             0.0000000000
     22077       191  SLPC      C2            -37.7871035378       31.4308005805      -14.3423137294  MEMB      191             0.0000000000
     22078       191  SLPC      HS            -36.9369857937       32.1421695337      -14.2676465766  MEMB      191             0.0000000000
     22079       191  SLPC      O21           -37.2801670541       30.1544765122      -13.9395100568  MEMB      191             0.0000000000
     22080       191  SLPC      C21           -36.5392538619       30.0956710309      -12.9074477533  MEMB      191             0.0000000000
     22081       191  SLPC      O22           -36.0470187600       31.0238022781      -12.3017121299  MEMB      191             0.0000000000
     22082       191  SLPC      C22           -36.3658211726       28.6606387285      -12.4736875347  MEMB      191             0.0000000000
     22083       191  SLPC      H2R           -37.2777749767       28.2043607231      -12.0326980586  MEMB      191             0.0000000000
     22084       191  SLPC      H2S           -36.1432392351       28.0388147547      -13.3670593458  MEMB      191             0.0000000000
     22085       191  SLPC      C3            -38.8315306979       31.9894240449      -13.2579268948  MEMB      191             0.0000000000
     22086       191  SLPC      HX            -39.3851975249       32.8160050568      -13.7524347670  MEMB      191             0.0000000000
     22087       191  SLPC      HY            -38.2765283000       32.3142883496      -12.3519707791  MEMB      191             0.0000000000
     22088       191  SLPC      O31           -39.6723691405       30.9359896986      -12.7759571049  MEMB      191             0.0000000000
     22089       191  SLPC      C31           -40.5031332624       31.2423808149      -11.7679162791  MEMB      191             0.0000000000
     22090       191  SLPC      O32           -40.8231784096       32.4006334859      -11.4038022351  MEMB      191             0.0000000000
     22091       191  SLPC      C32           -40.6700100680       29.9294565371      -10.9938483287  MEMB      191             0.0000000000
     22092       191  SLPC      H2X           -39.7881670784       29.2758347644      -11.1654654505  MEMB      191             0.0000000000
     22093       191  SLPC      H2Y           -41.5319969882       29.4811694838      -11.5326789045  MEMB      191             0.0000000000
     22094       191  SLPC      C23           -35.3055081056       28.6576511938      -11.2998999880  MEMB      191             0.0000000000
     22095       191  SLPC      H3R           -34.3793840893       29.1453459532      -11.6724171029  MEMB      191             0.0000000000
     22096       191  SLPC      H3S           -35.1184765526       27.5626305473      -11.3163292579  MEMB      191             0.0000000000
     22097       191  SLPC      C24           -35.7472713196       29.1709947449       -9.8917761584  MEMB      191             0.0000000000
     22098       191  SLPC      H4R           -36.2083378712       30.1812175933       -9.9262476077  MEMB      191             0.0000000000
     22099       191  SLPC      H4S           -34.8461836555       29.1949838896       -9.2423251776  MEMB      191             0.0000000000
     22100       191  SLPC      C25           -36.9309641235       28.4348977529       -9.2675289371  MEMB      191             0.0000000000
     22101       191  SLPC      H5R           -37.7967643204       28.3566763129       -9.9593324158  MEMB      191             0.0000000000
     22102       191  SLPC      H5S           -37.3155795497       29.0253224498       -8.4085814732  MEMB      191             0.0000000000
     22103       191  SLPC      C26           -36.5346505093       27.0448170113       -8.6876338582  MEMB      191             0.0000000000
     22104       191  SLPC      H6R           -35.7448511982       27.2908469197       -7.9460090543  MEMB      191             0.0000000000
     22105       191  SLPC      H6S           -36.0360238834       26.4981829915       -9.5164184220  MEMB      191             0.0000000000
     22106       191  SLPC      C27           -37.6628115599       26.3460639503       -7.9218184865  MEMB      191             0.0000000000
     22107       191  SLPC      H7R           -38.3141914394       25.7634897843       -8.6078452044  MEMB      191             0.0000000000
     22108       191  SLPC      H7S           -38.2873831533       27.0371629750       -7.3163319065  MEMB      191             0.0000000000
     22109       191  SLPC      C28           -36.9441346895       25.3611723711       -6.9250094580  MEMB      191             0.0000000000
     22110       191  SLPC      H8R           -36.3447115554       26.0896419369       -6.3382007339  MEMB      191             0.0000000000
     22111       191  SLPC      H8S           -36.2681851688       24.6995181067       -7.5077850836  MEMB      191             0.0000000000
     22112       191  SLPC      C29           -37.7521487205       24.4287616003       -6.0941432376  MEMB      191             0.0000000000
     22113       191  SLPC      H9R           -38.5057042085       23.8540149860       -6.6525524252  MEMB      191             0.0000000000
     22114       191  SLPC      C210          -37.5924497702       24.2529882747       -4.7382179238  MEMB      191             0.0000000000
     22115       191  SLPC      H10R          -38.3790312840       23.6691221626       -4.2378281057  MEMB      191             0.0000000000
     22116       191  SLPC      C211          -36.5896003760       25.0312151837       -3.7917034467  MEMB      191             0.0000000000
     22117       191  SLPC      H11R          -35.6216166938       25.1191698668       -4.3298414764  MEMB      191             0.0000000000
     22118       191  SLPC      H11S          -36.3754870850       24.4203084875       -2.8887807096  MEMB      191             0.0000000000
     22119       191  SLPC      C212          -36.9670406072       26.4792562121       -3.4859661321  MEMB      191             0.0000000000
     22120       191  SLPC      H12R          -36.8518270719       27.1600857408       -4.3422358619  MEMB      191             0.0000000000
     22121       191  SLPC      C213          -37.3856148542       27.1012679800       -2.3656715383  MEMB      191             0.0000000000
     22122       191  SLPC      H13R          -37.6091231799       28.1753487802       -2.2857070285  MEMB      191             0.0000000000
     22123       191  SLPC      C214          -37.6195519067       26.3842432760       -1.0389057627  MEMB      191             0.0000000000
     22124       191  SLPC      H14R          -36.9625048320       26.9492885538       -0.3436837656  MEMB      191             0.0000000000
     22125       191  SLPC      H14S          -37.2940739639       25.3219924826       -1.0359960069  MEMB      191             0.0000000000
     22126       191  SLPC      C215          -39.0625121202       26.4724792492       -0.4878495915  MEMB      191             0.0000000000
     22127       191  SLPC      H15R          -39.3217038441       27.5252687047       -0.2454138082  MEMB      191             0.0000000000
     22128       191  SLPC      H15S          -39.1604011685       25.9639015017        0.4950470225  MEMB      191             0.0000000000
     22129       191  SLPC      C216          -40.1274623750       25.9263570310       -1.5198452634  MEMB      191             0.0000000000
     22130       191  SLPC      H16R          -39.6114860741       25.0729827104       -2.0095820334  MEMB      191             0.0000000000
     22131       191  SLPC      H16S          -40.3798784015       26.6955637006       -2.2807187534  MEMB      191             0.0000000000
     22132       191  SLPC      C217          -41.4524038092       25.5059704046       -0.7743801880  MEMB      191             0.0000000000
     22133       191  SLPC      H17R          -41.2946542782       25.7581659136        0.2960563620  MEMB      191             0.0000000000
     22134       191  SLPC      H17S          -41.5904065712       24.4102172056       -0.8952135105  MEMB      191             0.0000000000
     22135       191  SLPC      C218          -42.6682354036       26.2581213807       -1.1678866563  MEMB      191             0.0000000000
     22136       191  SLPC      H18R          -43.5949535110       25.8720213472       -0.6920274255  MEMB      191             0.0000000000
     22137       191  SLPC      H18S          -42.8464638644       26.3107824915       -2.2632327340  MEMB      191             0.0000000000
     22138       191  SLPC      H18T          -42.6165924976       27.3273743251       -0.8706451814  MEMB      191             0.0000000000
     22139       191  SLPC      C33           -40.8369576493       30.2771463701       -9.5062031533  MEMB      191             0.0000000000
     22140       191  SLPC      H3X           -41.6502449731       31.0133674984       -9.3305232359  MEMB      191             0.0000000000
     22141       191  SLPC      H3Y           -39.8799344487       30.7200561893       -9.1565485418  MEMB      191             0.0000000000
     22142       191  SLPC      C34           -40.9481126080       28.9605018833       -8.6850537139  MEMB      191             0.0000000000
     22143       191  SLPC      H4X           -40.0983617049       28.2527310422       -8.7913769804  MEMB      191             0.0000000000
     22144       191  SLPC      H4Y           -41.8359455966       28.4621042285       -9.1296585522  MEMB      191             0.0000000000
     22145       191  SLPC      C35           -41.2610028464       29.2326804018       -7.2086261348  MEMB      191             0.0000000000
     22146       191  SLPC      H5X           -42.0377873184       30.0150588012       -7.0714737098  MEMB      191             0.0000000000
     22147       191  SLPC      H5Y           -40.3120823293       29.6038795827       -6.7658147777  MEMB      191             0.0000000000
     22148       191  SLPC      C36           -41.7017969768       27.9025883790       -6.4851495368  MEMB      191             0.0000000000
     22149       191  SLPC      H6X           -40.9802701352       27.1074873172       -6.7706911888  MEMB      191             0.0000000000
     22150       191  SLPC      H6Y           -42.6676006389       27.6054186974       -6.9469225759  MEMB      191             0.0000000000
     22151       191  SLPC      C37           -41.8793020834       28.1268520151       -4.9871095833  MEMB      191             0.0000000000
     22152       191  SLPC      H7X           -40.8411179446       28.2753634044       -4.6204502339  MEMB      191             0.0000000000
     22153       191  SLPC      H7Y           -42.1782300193       27.1417884237       -4.5692417376  MEMB      191             0.0000000000
     22154       191  SLPC      C38           -42.7231711596       29.2983136598       -4.4867641068  MEMB      191             0.0000000000
     22155       191  SLPC      H8X           -43.6998841459       29.3299647359       -5.0153009181  MEMB      191             0.0000000000
     22156       191  SLPC      H8Y           -42.1981640483       30.2495215529       -4.7189112999  MEMB      191             0.0000000000
     22157       191  SLPC      C39           -42.9644715661       29.3795397711       -2.9508827598  MEMB      191             0.0000000000
     22158       191  SLPC      H9X           -43.5558659909       28.5770052987       -2.4604619499  MEMB      191             0.0000000000
     22159       191  SLPC      H9Y           -43.7044506554       30.2065417419       -2.8977777130  MEMB      191             0.0000000000
     22160       191  SLPC      C310          -41.7446487850       29.5426206417       -2.0341365074  MEMB      191             0.0000000000
     22161       191  SLPC      H10X          -41.0629336002       28.6697090593       -2.1213746950  MEMB      191             0.0000000000
     22162       191  SLPC      H10Y          -42.1494392951       29.6455796199       -1.0046389107  MEMB      191             0.0000000000
     22163       191  SLPC      C311          -40.8438595399       30.7969602173       -2.2908440494  MEMB      191             0.0000000000
     22164       191  SLPC      H11X          -41.3891676553       31.6764227242       -1.8864849369  MEMB      191             0.0000000000
     22165       191  SLPC      H11Y          -40.6016656533       30.9706634231       -3.3611199586  MEMB      191             0.0000000000
     22166       191  SLPC      C312          -39.4500265787       30.6827978100       -1.6186550920  MEMB      191             0.0000000000
     22167       191  SLPC      H12X          -39.0090827321       29.7472023112       -2.0243026219  MEMB      191             0.0000000000
     22168       191  SLPC      H12Y          -39.5882037383       30.3729385297       -0.5607244128  MEMB      191             0.0000000000
     22169       191  SLPC      C313          -38.6889807497       32.0153202859       -1.6420559388  MEMB      191             0.0000000000
     22170       191  SLPC      H13X          -39.3868688924       32.8459157982       -1.4025059521  MEMB      191             0.0000000000
     22171       191  SLPC      H13Y          -38.1509657073       32.0859547101       -2.6115257285  MEMB      191             0.0000000000
     22172       191  SLPC      C314          -37.4597903314       32.1898801603       -0.6558842394  MEMB      191             0.0000000000
     22173       191  SLPC      H14X          -37.8621286197       31.8225176942        0.3123557133  MEMB      191             0.0000000000
     22174       191  SLPC      H14Y          -37.2539786382       33.2717963748       -0.5095292353  MEMB      191             0.0000000000
     22175       191  SLPC      C315          -36.2208581323       31.2594072305       -1.0198636711  MEMB      191             0.0000000000
     22176       191  SLPC      H15X          -35.7295178002       31.4766336898       -1.9923437540  MEMB      191             0.0000000000
     22177       191  SLPC      H15Y          -36.5665772726       30.2035678576       -1.0215677337  MEMB      191             0.0000000000
     22178       191  SLPC      C316          -35.0560093722       31.3573973538        0.0683753375  MEMB      191             0.0000000000
     22179       191  SLPC      H16X          -35.1623181177       32.3078425060        0.6337724553  MEMB      191             0.0000000000
     22180       191  SLPC      H16Y          -34.1283466972       31.2446490894       -0.5324995414  MEMB      191             0.0000000000
     22181       191  SLPC      C317          -35.1522787890       30.2932523790        1.2048611346  MEMB      191             0.0000000000
     22182       191  SLPC      H17X          -35.2743372819       29.2842320883        0.7561937764  MEMB      191             0.0000000000
     22183       191  SLPC      H17Y          -36.1653927106       30.6071786707        1.5355738955  MEMB      191             0.0000000000
     22184       191  SLPC      C318          -33.9928230457       30.2675064560        2.2400622711  MEMB      191             0.0000000000
     22185       191  SLPC      H18X          -33.8422360183       31.3147149584        2.5791760715  MEMB      191             0.0000000000
     22186       191  SLPC      H18Y          -33.0181361503       30.0900393269        1.7372590006  MEMB      191             0.0000000000
     22187       191  SLPC      H18Z          -34.1360350366       29.5948294624        3.1125967640  MEMB      191             0.0000000000
     22188       192  SAPS      N             -38.1002641601       39.5820906605      -19.3010192972  MEMB      192             0.0000000000
     22189       192  SAPS      HN1           -37.4440559697       40.1808280437      -18.7601823324  MEMB      192             0.0000000000
     22190       192  SAPS      HN2           -38.5586107430       40.1717369159      -20.0247843212  MEMB      192             0.0000000000
     22191       192  SAPS      HN3           -38.8556138376       39.2032751439      -18.6947638457  MEMB      192             0.0000000000
     22192       192  SAPS      C12           -37.1435281042       38.6066591341      -19.9031266987  MEMB      192             0.0000000000
     22193       192  SAPS      H12A          -37.5671446876       38.1877895352      -20.8039581238  MEMB      192             0.0000000000
     22194       192  SAPS      C13           -35.8350766009       39.4350895075      -20.3911703996  MEMB      192             0.0000000000
     22195       192  SAPS      O13A          -35.8004797467       40.6777441171      -20.1367021443  MEMB      192             0.0000000000
     22196       192  SAPS      O13B          -34.8937672701       38.7885325540      -20.8405168142  MEMB      192             0.0000000000
     22197       192  SAPS      C11           -36.5736605640       37.5701469472      -18.8639441713  MEMB      192             0.0000000000
     22198       192  SAPS      H11A          -37.4435707186       37.0792892844      -18.3774915937  MEMB      192             0.0000000000
     22199       192  SAPS      H11B          -35.8698347270       37.9949608918      -18.1166267917  MEMB      192             0.0000000000
     22200       192  SAPS      P             -36.4524526970       35.2888041571      -20.1935466261  MEMB      192             0.0000000000
     22201       192  SAPS      O13           -37.5272312509       35.6912131813      -21.0461135521  MEMB      192             0.0000000000
     22202       192  SAPS      O14           -35.4788524366       34.3300109662      -20.8504168432  MEMB      192             0.0000000000
     22203       192  SAPS      O12           -35.7751212297       36.6092450013      -19.5677650795  MEMB      192             0.0000000000
     22204       192  SAPS      O11           -37.0002003976       34.5772930560      -18.9056784242  MEMB      192             0.0000000000
     22205       192  SAPS      C1            -35.9851166546       34.0114835886      -18.1210417866  MEMB      192             0.0000000000
     22206       192  SAPS      HA            -35.4377311540       33.2665311679      -18.7372689536  MEMB      192             0.0000000000
     22207       192  SAPS      HB            -35.2548887224       34.7425922429      -17.7129140254  MEMB      192             0.0000000000
     22208       192  SAPS      C2            -36.7373070532       33.4944705589      -16.8505275299  MEMB      192             0.0000000000
     22209       192  SAPS      HS            -37.5432170539       32.8029978481      -17.1771704979  MEMB      192             0.0000000000
     22210       192  SAPS      O21           -37.4384177710       34.5231704548      -16.0864988296  MEMB      192             0.0000000000
     22211       192  SAPS      C21           -38.1631815110       34.1925507954      -14.9770401984  MEMB      192             0.0000000000
     22212       192  SAPS      O22           -38.4050860114       33.0646346612      -14.6115577111  MEMB      192             0.0000000000
     22213       192  SAPS      C22           -38.6684883699       35.4389877676      -14.1603749066  MEMB      192             0.0000000000
     22214       192  SAPS      H2R           -37.8924299614       36.2233193291      -14.2902919024  MEMB      192             0.0000000000
     22215       192  SAPS      H2S           -39.5130115098       35.8170503177      -14.7753306888  MEMB      192             0.0000000000
     22216       192  SAPS      C3            -35.8460106036       32.7893717548      -15.8564396595  MEMB      192             0.0000000000
     22217       192  SAPS      HX            -35.1807231745       32.1123269927      -16.4337819394  MEMB      192             0.0000000000
     22218       192  SAPS      HY            -36.4821370602       32.0981193856      -15.2632838335  MEMB      192             0.0000000000
     22219       192  SAPS      O31           -35.1874717732       33.7509581460      -15.0074013687  MEMB      192             0.0000000000
     22220       192  SAPS      C31           -34.1222176728       33.3411575112      -14.3191595016  MEMB      192             0.0000000000
     22221       192  SAPS      O32           -33.6635702651       32.2105092039      -14.1944955428  MEMB      192             0.0000000000
     22222       192  SAPS      C32           -33.3980251529       34.6064853204      -13.8069683962  MEMB      192             0.0000000000
     22223       192  SAPS      H2X           -33.9304955912       35.5314330779      -14.1156231633  MEMB      192             0.0000000000
     22224       192  SAPS      H2Y           -32.4299168224       34.6975083434      -14.3443716075  MEMB      192             0.0000000000
     22225       192  SAPS      C23           -38.9522707634       35.2957007366      -12.6947212078  MEMB      192             0.0000000000
     22226       192  SAPS      H3R           -39.1535283798       36.3168668293      -12.3060873530  MEMB      192             0.0000000000
     22227       192  SAPS      H3S           -38.0275814215       35.0065296371      -12.1509838482  MEMB      192             0.0000000000
     22228       192  SAPS      C24           -39.9756386897       34.1583356615      -12.3179821516  MEMB      192             0.0000000000
     22229       192  SAPS      H4R           -39.6270099701       33.1475108457      -12.6196642581  MEMB      192             0.0000000000
     22230       192  SAPS      H4S           -40.9431761677       34.2645366002      -12.8536263232  MEMB      192             0.0000000000
     22231       192  SAPS      C25           -40.2193480128       34.1957145435      -10.8440540477  MEMB      192             0.0000000000
     22232       192  SAPS      H5R           -40.8400455360       34.9849780260      -10.3948357171  MEMB      192             0.0000000000
     22233       192  SAPS      C26           -39.6753084573       33.3028532442       -9.9506517328  MEMB      192             0.0000000000
     22234       192  SAPS      H6R           -39.7324080212       33.4056981697       -8.8569593565  MEMB      192             0.0000000000
     22235       192  SAPS      C27           -38.7727987173       32.1650302443      -10.2900391758  MEMB      192             0.0000000000
     22236       192  SAPS      H7R           -39.2193201820       31.6370734659      -11.1596374555  MEMB      192             0.0000000000
     22237       192  SAPS      H7S           -38.7337702574       31.4096447785       -9.4762877305  MEMB      192             0.0000000000
     22238       192  SAPS      C28           -37.3137564126       32.5008206357      -10.5505046700  MEMB      192             0.0000000000
     22239       192  SAPS      H8R           -37.1039803110       32.6819169765      -11.6150230893  MEMB      192             0.0000000000
     22240       192  SAPS      C29           -36.4407117783       32.7496847733       -9.5775194950  MEMB      192             0.0000000000
     22241       192  SAPS      H9R           -35.4038662705       32.9652053745       -9.8750129302  MEMB      192             0.0000000000
     22242       192  SAPS      C210          -36.6818177071       32.7719431732       -8.1365516176  MEMB      192             0.0000000000
     22243       192  SAPS      H10R          -37.6430187018       33.3243597618       -8.0640970511  MEMB      192             0.0000000000
     22244       192  SAPS      H10S          -35.9886298130       33.5056324200       -7.6723194762  MEMB      192             0.0000000000
     22245       192  SAPS      C211          -37.0015408166       31.6138740597       -7.2907574143  MEMB      192             0.0000000000
     22246       192  SAPS      H11R          -37.5925741288       30.8400048868       -7.8024274437  MEMB      192             0.0000000000
     22247       192  SAPS      C212          -36.6793244880       31.4700273762       -6.0087959336  MEMB      192             0.0000000000
     22248       192  SAPS      H12R          -36.9888987801       30.5752924473       -5.4487837321  MEMB      192             0.0000000000
     22249       192  SAPS      C213          -35.8683378543       32.4429589191       -5.1430418133  MEMB      192             0.0000000000
     22250       192  SAPS      H13R          -36.4097333076       32.4631570490       -4.1730900398  MEMB      192             0.0000000000
     22251       192  SAPS      H13S          -35.9988868293       33.4619618943       -5.5660195789  MEMB      192             0.0000000000
     22252       192  SAPS      C214          -34.4319103709       32.1322446430       -5.0634737305  MEMB      192             0.0000000000
     22253       192  SAPS      H14R          -34.0546930484       31.2645261721       -5.6245188285  MEMB      192             0.0000000000
     22254       192  SAPS      C215          -33.5351498612       32.8067037177       -4.2859177597  MEMB      192             0.0000000000
     22255       192  SAPS      H15R          -32.4411830588       32.7127333436       -4.3522974822  MEMB      192             0.0000000000
     22256       192  SAPS      C216          -33.9855129087       33.9445816898       -3.4702713928  MEMB      192             0.0000000000
     22257       192  SAPS      H16R          -35.0603470954       33.8018783504       -3.2280137287  MEMB      192             0.0000000000
     22258       192  SAPS      H16S          -33.8968956963       34.9310453939       -3.9736164663  MEMB      192             0.0000000000
     22259       192  SAPS      C217          -33.2855996065       34.1812757923       -2.1236616889  MEMB      192             0.0000000000
     22260       192  SAPS      H17R          -33.6411144658       35.1956140425       -1.8425071031  MEMB      192             0.0000000000
     22261       192  SAPS      H17S          -32.1860318390       34.2139423778       -2.2792400406  MEMB      192             0.0000000000
     22262       192  SAPS      C218          -33.9528907187       33.2693125469       -1.0528649072  MEMB      192             0.0000000000
     22263       192  SAPS      H18R          -33.5600372503       32.2520073190       -1.2651792440  MEMB      192             0.0000000000
     22264       192  SAPS      H18S          -35.0371597710       33.2070909204       -1.2869818858  MEMB      192             0.0000000000
     22265       192  SAPS      C219          -33.6339994186       33.5445106954        0.4190386631  MEMB      192             0.0000000000
     22266       192  SAPS      H19R          -32.6365771223       34.0095483775        0.5713867273  MEMB      192             0.0000000000
     22267       192  SAPS      H19S          -33.4776778223       32.5704304985        0.9299713001  MEMB      192             0.0000000000
     22268       192  SAPS      C220          -34.6751109202       34.3831011892        1.1755849939  MEMB      192             0.0000000000
     22269       192  SAPS      H20R          -34.7288141758       34.3070833858        2.2826780465  MEMB      192             0.0000000000
     22270       192  SAPS      H20S          -35.6684175551       34.0795260452        0.7812424795  MEMB      192             0.0000000000
     22271       192  SAPS      H20T          -34.6020209502       35.4624845882        0.9227800628  MEMB      192             0.0000000000
     22272       192  SAPS      C33           -33.2471998050       34.5717378495      -12.2651174384  MEMB      192             0.0000000000
     22273       192  SAPS      H3X           -32.2299099152       34.9645661363      -12.0526831816  MEMB      192             0.0000000000
     22274       192  SAPS      H3Y           -33.1337962161       33.5247291588      -11.9112347490  MEMB      192             0.0000000000
     22275       192  SAPS      C34           -34.3587430160       35.4142664691      -11.5338686576  MEMB      192             0.0000000000
     22276       192  SAPS      H4X           -35.3805606698       35.0020138239      -11.6761969768  MEMB      192             0.0000000000
     22277       192  SAPS      H4Y           -34.2513022264       36.3993545823      -12.0362419886  MEMB      192             0.0000000000
     22278       192  SAPS      C35           -34.1744582317       35.5593526045      -10.0397866387  MEMB      192             0.0000000000
     22279       192  SAPS      H5X           -33.1347951031       35.8173147632       -9.7450375575  MEMB      192             0.0000000000
     22280       192  SAPS      H5Y           -34.2579142445       34.5327859232       -9.6232328595  MEMB      192             0.0000000000
     22281       192  SAPS      C36           -35.0921770519       36.5170032662       -9.3221401080  MEMB      192             0.0000000000
     22282       192  SAPS      H6X           -34.8460109914       37.5406595742       -9.6768951245  MEMB      192             0.0000000000
     22283       192  SAPS      H6Y           -34.9313044568       36.4402140123       -8.2255344015  MEMB      192             0.0000000000
     22284       192  SAPS      C37           -36.5986302332       36.3034804958       -9.4587497509  MEMB      192             0.0000000000
     22285       192  SAPS      H7X           -36.8436679090       35.3088999253       -9.0285326518  MEMB      192             0.0000000000
     22286       192  SAPS      H7Y           -36.8451591447       36.4524453243      -10.5317615208  MEMB      192             0.0000000000
     22287       192  SAPS      C38           -37.4449876813       37.4126839749       -8.7082672384  MEMB      192             0.0000000000
     22288       192  SAPS      H8X           -37.1484757899       38.3399142591       -9.2436599515  MEMB      192             0.0000000000
     22289       192  SAPS      H8Y           -37.1221107230       37.5090165102       -7.6495929304  MEMB      192             0.0000000000
     22290       192  SAPS      C39           -38.9846251793       37.3896281286       -8.8943982305  MEMB      192             0.0000000000
     22291       192  SAPS      H9X           -39.2056940657       37.0801703316       -9.9382782393  MEMB      192             0.0000000000
     22292       192  SAPS      H9Y           -39.3667857526       38.4326186579       -8.9154946635  MEMB      192             0.0000000000
     22293       192  SAPS      C310          -39.6683133089       36.6290358117       -7.7618979629  MEMB      192             0.0000000000
     22294       192  SAPS      H10X          -39.1801678145       35.6316713705       -7.7258517184  MEMB      192             0.0000000000
     22295       192  SAPS      H10Y          -40.7453544737       36.4511977880       -7.9684806569  MEMB      192             0.0000000000
     22296       192  SAPS      C311          -39.5764086298       37.2574693096       -6.3379101685  MEMB      192             0.0000000000
     22297       192  SAPS      H11X          -40.1701973743       38.1964762355       -6.3392840308  MEMB      192             0.0000000000
     22298       192  SAPS      H11Y          -38.4916853879       37.4353624346       -6.1765074302  MEMB      192             0.0000000000
     22299       192  SAPS      C312          -40.2064299744       36.4890701528       -5.1442078326  MEMB      192             0.0000000000
     22300       192  SAPS      H12X          -41.2296894673       36.2163404050       -5.4801821529  MEMB      192             0.0000000000
     22301       192  SAPS      H12Y          -40.3192126314       37.2135902213       -4.3095390797  MEMB      192             0.0000000000
     22302       192  SAPS      C313          -39.6669169365       35.1335402117       -4.7996583952  MEMB      192             0.0000000000
     22303       192  SAPS      H13X          -39.6163225406       34.6655924843       -5.8060315878  MEMB      192             0.0000000000
     22304       192  SAPS      H13Y          -40.3595438264       34.5526308915       -4.1538006872  MEMB      192             0.0000000000
     22305       192  SAPS      C314          -38.2045067093       35.1104478839       -4.2771504329  MEMB      192             0.0000000000
     22306       192  SAPS      H14X          -37.5429868748       35.5729564698       -5.0405629818  MEMB      192             0.0000000000
     22307       192  SAPS      H14Y          -37.9077858377       34.0450395021       -4.1714039441  MEMB      192             0.0000000000
     22308       192  SAPS      C315          -37.8759482240       35.7441075346       -2.9886460576  MEMB      192             0.0000000000
     22309       192  SAPS      H15X          -37.9261087260       36.8401233681       -3.1634422754  MEMB      192             0.0000000000
     22310       192  SAPS      H15Y          -36.8251105455       35.4469771210       -2.7842564985  MEMB      192             0.0000000000
     22311       192  SAPS      C316          -38.8981873153       35.3850426013       -1.9620917564  MEMB      192             0.0000000000
     22312       192  SAPS      H16X          -39.0958187873       34.2956153642       -2.0538029387  MEMB      192             0.0000000000
     22313       192  SAPS      H16Y          -39.8162808094       36.0037595937       -2.0549098665  MEMB      192             0.0000000000
     22314       192  SAPS      C317          -38.4899124544       35.5562141403       -0.4832692848  MEMB      192             0.0000000000
     22315       192  SAPS      H17X          -37.7152912383       34.8019341964       -0.2276445902  MEMB      192             0.0000000000
     22316       192  SAPS      H17Y          -39.3752507569       35.4115875782        0.1721531113  MEMB      192             0.0000000000
     22317       192  SAPS      C318          -38.0324234455       37.0010614005       -0.0908764427  MEMB      192             0.0000000000
     22318       192  SAPS      H18X          -37.7580060074       37.1160201560        0.9795440731  MEMB      192             0.0000000000
     22319       192  SAPS      H18Y          -38.7122521625       37.7754131198       -0.5062482925  MEMB      192             0.0000000000
     22320       192  SAPS      H18Z          -37.0917061446       37.1434144584       -0.6645549953  MEMB      192             0.0000000000
     22321       193  TIP3      OH2            -1.0227147659        8.4395627413       19.9629000000  TIP3      1               0.0000000000
     22322       193  TIP3      H1             -1.4375150233        7.9434258221       20.6686100000  TIP3      1               0.0000000000
     22323       193  TIP3      H2             -0.4751922631        9.0835955022       20.4119900000  TIP3      1               0.0000000000
     22324       194  TIP3      OH2             2.4889073423        8.5345955030       20.9078000000  TIP3      2               0.0000000000
     22325       194  TIP3      H1              1.9168465292        9.3005121725       20.9564600000  TIP3      2               0.0000000000
     22326       194  TIP3      H2              2.1284594016        8.0109402068       20.1921900000  TIP3      2               0.0000000000
     22327       195  TIP3      OH2            -6.8852340407        5.0328185949       20.0540100000  TIP3      3               0.0000000000
     22328       195  TIP3      H1             -6.9583272450        4.1790514840       20.4806000000  TIP3      3               0.0000000000
     22329       195  TIP3      H2             -7.4233918658        5.6156129184       20.5897000000  TIP3      3               0.0000000000
     22330       196  TIP3      OH2             8.9003924515       11.5554428859       19.5649200000  TIP3      4               0.0000000000
     22331       196  TIP3      H1              9.5227977494       11.6626081075       20.2842000000  TIP3      4               0.0000000000
     22332       196  TIP3      H2              8.0518705655       11.7810091475       19.9461800000  TIP3      4               0.0000000000
     22333       197  TIP3      OH2            14.0563871567        5.1804145017       19.9993250000  TIP3      5               0.0000000000
     22334       197  TIP3      H1             14.1174072496        6.0954307009       19.7249950000  TIP3      5               0.0000000000
     22335       197  TIP3      H2             13.1398710127        5.0658072999       20.2505350000  TIP3      5               0.0000000000
     22336       198  TIP3      OH2            16.2083440195        0.4636065644       20.0007350000  TIP3      6               0.0000000000
     22337       198  TIP3      H1             17.1086116282        0.7886717651       19.9912950000  TIP3      6               0.0000000000
     22338       198  TIP3      H2             15.6751512748        1.2272170078       19.7797450000  TIP3      6               0.0000000000
     22339       199  TIP3      OH2           -11.7384289661        6.2801213531       20.5425600000  TIP3      7               0.0000000000
     22340       199  TIP3      H1            -11.5955361403        7.1914940992       20.7979100000  TIP3      7               0.0000000000
     22341       199  TIP3      H2            -12.4672338511        6.3159146126       19.9230500000  TIP3      7               0.0000000000
     22342       200  TIP3      OH2           -14.5814497290        5.1560827136       21.7480100000  TIP3      8               0.0000000000
     22343       200  TIP3      H1            -14.3896434438        5.7596085849       22.4657900000  TIP3      8               0.0000000000
     22344       200  TIP3      H2            -14.0052472473        5.4375089380       21.0373700000  TIP3      8               0.0000000000
     22345       201  TIP3      OH2           -14.4623353682        8.2985016470       20.6219200000  TIP3      9               0.0000000000
     22346       201  TIP3      H1            -15.3746479665        8.4379744030       20.3680300000  TIP3      9               0.0000000000
     22347       201  TIP3      H2            -14.3709121263        8.7634462327       21.4536100000  TIP3      9               0.0000000000
     22348       202  TIP3      OH2            10.4265584605      -12.5972415497       19.8488700000  TIP3      10              0.0000000000
     22349       202  TIP3      H1              9.7483821734      -12.7080534866       19.1825200000  TIP3      10              0.0000000000
     22350       202  TIP3      H2             10.2941757708      -11.7091798528       20.1806400000  TIP3      10              0.0000000000
     22351       203  TIP3      OH2             5.9083359173      -14.2885441264       20.9994500000  TIP3      11              0.0000000000
     22352       203  TIP3      H1              6.4219940428      -14.2092811832       20.1956500000  TIP3      11              0.0000000000
     22353       203  TIP3      H2              5.1106818237      -13.7890740521       20.8247500000  TIP3      11              0.0000000000
     22354       204  TIP3      OH2             7.8993549369      -10.8009252928       18.9372500000  TIP3      12              0.0000000000
     22355       204  TIP3      H1              8.4481788439      -10.3964841219       19.6091500000  TIP3      12              0.0000000000
     22356       204  TIP3      H2              7.6211698235      -10.0713991467       18.3834900000  TIP3      12              0.0000000000
     22357       205  TIP3      OH2             5.3148915012       18.3767288345       19.3343400000  TIP3      13              0.0000000000
     22358       205  TIP3      H1              6.0958856165       18.8007864653       18.9787400000  TIP3      13              0.0000000000
     22359       205  TIP3      H2              5.2359376831       17.5629880414       18.8365400000  TIP3      13              0.0000000000
     22360       206  TIP3      OH2            17.8150219774        8.4838165887       21.0987400000  TIP3      14              0.0000000000
     22361       206  TIP3      H1             18.4259816527        7.7881435997       21.3416400000  TIP3      14              0.0000000000
     22362       206  TIP3      H2             17.6721012394        8.3608514898       20.1602900000  TIP3      14              0.0000000000
     22363       207  TIP3      OH2            15.1110261568        7.3209875744       19.9435400000  TIP3      15              0.0000000000
     22364       207  TIP3      H1             15.2581524034        6.8295412559       20.7516700000  TIP3      15              0.0000000000
     22365       207  TIP3      H2             15.2082852746        6.6718660861       19.2468300000  TIP3      15              0.0000000000
     22366       208  TIP3      OH2            18.2860208516        6.3731499090       18.7506300000  TIP3      16              0.0000000000
     22367       208  TIP3      H1             19.1079871192        6.1583082797       19.1915900000  TIP3      16              0.0000000000
     22368       208  TIP3      H2             17.6413114754        5.7859910062       19.1453800000  TIP3      16              0.0000000000
     22369       209  TIP3      OH2             7.3183719166      -20.6594503477       19.9594300000  TIP3      17              0.0000000000
     22370       209  TIP3      H1              6.7288346244      -21.3046889172       19.5691300000  TIP3      17              0.0000000000
     22371       209  TIP3      H2              7.3261427061      -19.9333145127       19.3358100000  TIP3      17              0.0000000000
     22372       210  TIP3      OH2             4.5619299793      -18.3617360427       19.6954400000  TIP3      18              0.0000000000
     22373       210  TIP3      H1              5.1596641319      -17.7753630920       20.1592500000  TIP3      18              0.0000000000
     22374       210  TIP3      H2              4.3301051094      -19.0285097228       20.3419100000  TIP3      18              0.0000000000
     22375       211  TIP3      OH2           -23.0397435809       -3.8525343175       19.6767600000  TIP3      19              0.0000000000
     22376       211  TIP3      H1            -23.5566252629       -3.1335947107       19.3131800000  TIP3      19              0.0000000000
     22377       211  TIP3      H2            -23.5659792168       -4.6345761128       19.5103000000  TIP3      19              0.0000000000
     22378       212  TIP3      OH2           -24.0639606946        0.5080358020       19.4397900000  TIP3      20              0.0000000000
     22379       212  TIP3      H1            -24.4566119959        0.8928088121       20.2233800000  TIP3      20              0.0000000000
     22380       212  TIP3      H2            -23.1514901029        0.7963254010       19.4622900000  TIP3      20              0.0000000000
     22381       213  TIP3      OH2           -13.5127654064       22.7691019429       20.8472200000  TIP3      21              0.0000000000
     22382       213  TIP3      H1            -13.8999762565       23.5478470448       21.2470300000  TIP3      21              0.0000000000
     22383       213  TIP3      H2            -12.5904395492       22.9947637441       20.7263600000  TIP3      21              0.0000000000
     22384       214  TIP3      OH2           -14.1792551347       18.3094119339       19.1273800000  TIP3      22              0.0000000000
     22385       214  TIP3      H1            -13.3882904550       18.7050513852       19.4935400000  TIP3      22              0.0000000000
     22386       214  TIP3      H2            -14.6702651509       19.0465001811       18.7642600000  TIP3      22              0.0000000000
     22387       215  TIP3      OH2           -14.6382502076       20.3812910352       21.8068000000  TIP3      23              0.0000000000
     22388       215  TIP3      H1            -13.9840741187       21.0454227514       21.5895000000  TIP3      23              0.0000000000
     22389       215  TIP3      H2            -15.2386786086       20.3829255722       21.0613400000  TIP3      23              0.0000000000
     22390       216  TIP3      OH2            24.2061544103      -14.5357419575       19.8620000000  TIP3      24              0.0000000000
     22391       216  TIP3      H1             24.6835053472      -14.4594326609       20.6881700000  TIP3      24              0.0000000000
     22392       216  TIP3      H2             24.4349684636      -15.4046371658       19.5320100000  TIP3      24              0.0000000000
     22393       217  TIP3      OH2            21.5694570443      -10.3202935852       19.6328900000  TIP3      25            -36.6800000000
     22394       217  TIP3      H1             22.3049752359      -10.9125887619       19.4766000000  TIP3      25            -36.8500000000
     22395       217  TIP3      H2             21.0494137862      -10.3665470902       18.8306200000  TIP3      25            -36.6400000000
     22396       218  TIP3      OH2            26.7551240914       -5.8156746411       21.1534750000  TIP3      26              0.0000000000
     22397       218  TIP3      H1             26.2801695161       -5.0096023875       21.3557050000  TIP3      26              0.0000000000
     22398       218  TIP3      H2             26.1705232987       -6.2985397501       20.5692650000  TIP3      26              0.0000000000
     22399       219  TIP3      OH2            23.2704955618       -3.5759417934       19.2898750000  TIP3      27              0.0000000000
     22400       219  TIP3      H1             24.0745923272       -3.9122020653       18.8941650000  TIP3      27              0.0000000000
     22401       219  TIP3      H2             22.9021084862       -4.3249881729       19.7583250000  TIP3      27              0.0000000000
     22402       220  TIP3      OH2            24.9779747413       -3.3980898656       21.4923850000  TIP3      28              0.0000000000
     22403       220  TIP3      H1             24.8433165011       -3.4930645398       20.5494750000  TIP3      28              0.0000000000
     22404       220  TIP3      H2             24.4088460052       -2.6707686148       21.7440250000  TIP3      28              0.0000000000
     22405       221  TIP3      OH2            28.7252742888        5.1272533850       21.4480850000  TIP3      29              0.0000000000
     22406       221  TIP3      H1             28.3591898092        5.3409459581       20.5898550000  TIP3      29              0.0000000000
     22407       221  TIP3      H2             27.9870268812        5.2112271943       22.0515550000  TIP3      29              0.0000000000
     22408       222  TIP3      OH2            27.8295520045        2.2658106235       18.9099250000  TIP3      30              0.0000000000
     22409       222  TIP3      H1             27.1485158235        2.1952591088       19.5788350000  TIP3      30              0.0000000000
     22410       222  TIP3      H2             28.4272447277        1.5423844996       19.0987450000  TIP3      30              0.0000000000
     22411       223  TIP3      OH2            27.3850314084        6.9724393282       19.0528150000  TIP3      31              0.0000000000
     22412       223  TIP3      H1             27.8182623745        7.8185566060       18.9404350000  TIP3      31              0.0000000000
     22413       223  TIP3      H2             27.0784472840        6.7414560014       18.1759550000  TIP3      31              0.0000000000
     22414       224  TIP3      OH2            30.6934808612        7.5877249641       19.1708050000  TIP3      32              0.0000000000
     22415       224  TIP3      H1             30.6298339162        6.6345605914       19.2312350000  TIP3      32              0.0000000000
     22416       224  TIP3      H2             31.3792370115        7.8225673683       19.7959750000  TIP3      32              0.0000000000
     22417       225  TIP3      OH2             9.2900652160      -29.7460833589       20.8914250000  TIP3      33              0.0000000000
     22418       225  TIP3      H1             10.2428426336      -29.6567839980       20.8693650000  TIP3      33              0.0000000000
     22419       225  TIP3      H2              8.9853333987      -29.2556329675       20.1279950000  TIP3      33              0.0000000000
     22420       226  TIP3      OH2            10.7815977886      -26.6532213299       20.5845850000  TIP3      34              0.0000000000
     22421       226  TIP3      H1             10.6565950914      -25.8581892763       21.1027850000  TIP3      34              0.0000000000
     22422       226  TIP3      H2             11.6993856685      -26.8876168666       20.7223050000  TIP3      34              0.0000000000
     22423       227  TIP3      OH2           -31.2446715882        5.3754836903       20.1789500000  TIP3      35              0.0000000000
     22424       227  TIP3      H1            -31.2564405514        6.3127705196       20.3727800000  TIP3      35              0.0000000000
     22425       227  TIP3      H2            -31.8394094368        4.9898905726       20.8222500000  TIP3      35              0.0000000000
     22426       228  TIP3      OH2           -20.0209043887      -21.8462098832       20.2270100000  TIP3      36            -37.7400000000
     22427       228  TIP3      H1            -19.5025466042      -22.4655125376       19.7131900000  TIP3      36            -37.6000000000
     22428       228  TIP3      H2            -20.1876006011      -22.3001793034       21.0530700000  TIP3      36            -38.6900000000
     22429       229  TIP3      OH2           -21.0199479142      -25.6578831676       19.3699600000  TIP3      37              0.0000000000
     22430       229  TIP3      H1            -20.5219038036      -26.4645110139       19.2375200000  TIP3      37              0.0000000000
     22431       229  TIP3      H2            -20.3534947677      -24.9798610514       19.4811400000  TIP3      37              0.0000000000
     22432       230  TIP3      OH2           -16.0036842708      -24.5294857157       19.5835200000  TIP3      38              0.0000000000
     22433       230  TIP3      H1            -15.4811782170      -23.9314050950       20.1178500000  TIP3      38              0.0000000000
     22434       230  TIP3      H2            -15.3583274180      -25.0626714503       19.1193400000  TIP3      38              0.0000000000
     22435       231  TIP3      OH2            -7.0723671325      -31.9868013727       21.1424900000  TIP3      39              0.0000000000
     22436       231  TIP3      H1             -6.8652238899      -31.3472177485       20.4611400000  TIP3      39              0.0000000000
     22437       231  TIP3      H2             -8.0236024640      -31.9372319374       21.2369800000  TIP3      39              0.0000000000
     22438       232  TIP3      OH2            -3.6294369930      -30.4195801937       19.9701000000  TIP3      40              0.0000000000
     22439       232  TIP3      H1             -3.5039753579      -31.3528036453       20.1421200000  TIP3      40              0.0000000000
     22440       232  TIP3      H2             -3.0291828976      -29.9815174403       20.5734500000  TIP3      40              0.0000000000
     22441       233  TIP3      OH2           -25.3616509904       18.3070504725       20.1484100000  TIP3      41              0.0000000000
     22442       233  TIP3      H1            -26.2003692922       18.7261647252       20.3411100000  TIP3      41              0.0000000000
     22443       233  TIP3      H2            -25.2577054204       17.6503616505       20.8370300000  TIP3      41              0.0000000000
     22444       234  TIP3      OH2           -22.1901547624       21.7477986319       19.0467100000  TIP3      42              0.0000000000
     22445       234  TIP3      H1            -21.3212675069       21.4851360316       19.3504800000  TIP3      42              0.0000000000
     22446       234  TIP3      H2            -22.5583386390       20.9544948849       18.6576900000  TIP3      42              0.0000000000
     22447       235  TIP3      OH2            33.2668899129       -1.9345024648       20.8331750000  TIP3      43              0.0000000000
     22448       235  TIP3      H1             34.0674964421       -1.5324712094       21.1702550000  TIP3      43              0.0000000000
     22449       235  TIP3      H2             32.6671622858       -1.9370701278       21.5791850000  TIP3      43              0.0000000000
     22450       236  TIP3      OH2            31.8001387799       -5.9676238869       20.4714850000  TIP3      44              0.0000000000
     22451       236  TIP3      H1             32.2708086632       -5.3732782561       19.8871450000  TIP3      44              0.0000000000
     22452       236  TIP3      H2             32.1834257085       -5.8094374016       21.3342150000  TIP3      44              0.0000000000
     22453       237  TIP3      OH2           -20.7168865365       29.0331201100       20.8771700000  TIP3      45              0.0000000000
     22454       237  TIP3      H1            -20.4057362928       28.6842240914       20.0419000000  TIP3      45              0.0000000000
     22455       237  TIP3      H2            -20.6573118855       28.2944038076       21.4829500000  TIP3      45              0.0000000000
     22456       238  TIP3      OH2           -32.3376546146       10.5401937815       20.2922850000  TIP3      46              0.0000000000
     22457       238  TIP3      H1            -31.4581382240       10.7909697925       20.5747550000  TIP3      46              0.0000000000
     22458       238  TIP3      H2            -32.5852605968        9.8281700515       20.8821450000  TIP3      46              0.0000000000
     22459       239  TIP3      OH2           -36.4261543167       12.3794346691       19.9524950000  TIP3      47              0.0000000000
     22460       239  TIP3      H1            -35.7172431216       12.4074092395       19.3099250000  TIP3      47              0.0000000000
     22461       239  TIP3      H2            -36.8311961423       11.5214563343       19.8257750000  TIP3      47              0.0000000000
     22462       240  TIP3      OH2           -12.1636614819       36.8262324006       19.7184900000  TIP3      48              0.0000000000
     22463       240  TIP3      H1            -11.7732482330       37.1752995339       20.5197200000  TIP3      48              0.0000000000
     22464       240  TIP3      H2            -13.0861626786       36.6958642328       19.9380800000  TIP3      48              0.0000000000
     22465       241  TIP3      OH2            -8.0306457005       33.7321705869       19.1976300000  TIP3      49              0.0000000000
     22466       241  TIP3      H1             -7.7075100113       34.0426651384       20.0434500000  TIP3      49              0.0000000000
     22467       241  TIP3      H2             -8.3671254864       34.5176174596       18.7662600000  TIP3      49              0.0000000000
     22468       242  TIP3      OH2            -7.2357097562       37.6034524083       19.7646000000  TIP3      50              0.0000000000
     22469       242  TIP3      H1             -7.3549046312       37.3740103262       20.6862200000  TIP3      50              0.0000000000
     22470       242  TIP3      H2             -8.0664607773       37.3707067661       19.3499700000  TIP3      50              0.0000000000
     22471       243  TIP3      OH2            -8.8252340441       37.0414444900       21.9441000000  TIP3      51              0.0000000000
     22472       243  TIP3      H1             -9.6983601211       37.3893533334       22.1253000000  TIP3      51              0.0000000000
     22473       243  TIP3      H2             -8.8556364915       36.1391629446       22.2621900000  TIP3      51              0.0000000000
     22474       244  TIP3      OH2            24.9545309030       30.5567619658       21.3905150000  TIP3      52              0.0000000000
     22475       244  TIP3      H1             25.6329885977       30.6511173361       22.0591050000  TIP3      52              0.0000000000
     22476       244  TIP3      H2             24.7780902656       31.4514886405       21.0997150000  TIP3      52              0.0000000000
     22477       245  TIP3      OH2           -32.0902146310      -31.9074559901       19.2399550000  TIP3      53              0.0000000000
     22478       245  TIP3      H1            -32.4244662450      -32.7478710427       18.9265750000  TIP3      53              0.0000000000
     22479       245  TIP3      H2            -31.1769438761      -31.8906421727       18.9538050000  TIP3      53              0.0000000000
     22480       246  TIP3      OH2           -27.0425283136      -32.2736384469       20.1295750000  TIP3      54              0.0000000000
     22481       246  TIP3      H1            -26.7198209774      -31.4013795228       20.3559650000  TIP3      54              0.0000000000
     22482       246  TIP3      H2            -27.0292543826      -32.7564028110       20.9560050000  TIP3      54              0.0000000000
     22483       247  TIP3      OH2           -27.5825391396      -29.5168584078       18.6422450000  TIP3      55              0.0000000000
     22484       247  TIP3      H1            -26.9767528191      -28.7761763229       18.6675850000  TIP3      55              0.0000000000
     22485       247  TIP3      H2            -27.7680054318      -29.6434769414       17.7117650000  TIP3      55              0.0000000000
     22486       248  TIP3      OH2             5.9514483727       11.2060779860      -20.2270100000  TIP3      56            -37.7400000000
     22487       248  TIP3      H1              5.1500648575       11.1060028540      -19.7131900000  TIP3      56            -37.6000000000
     22488       248  TIP3      H2              5.7641257588       10.7602236376      -21.0530700000  TIP3      56            -38.6900000000
     22489       249  TIP3      OH2             4.0854267790        7.7355010016      -19.3699600000  TIP3      57              0.0000000000
     22490       249  TIP3      H1              3.1712694851        7.4844773759      -19.2375200000  TIP3      57              0.0000000000
     22491       249  TIP3      H2              4.0596351704        8.6858738650      -19.4811400000  TIP3      57              0.0000000000
     22492       250  TIP3      OH2             1.1828064978       11.9794351732      -19.5835200000  TIP3      58              0.0000000000
     22493       250  TIP3      H1              1.2079011156       12.7732130169      -20.1178500000  TIP3      58              0.0000000000
     22494       250  TIP3      H2              0.3471492236       12.0289267375      -19.1193400000  TIP3      58              0.0000000000
     22495       251  TIP3      OH2             6.0724319948       -7.5419612284      -19.6247300000  TIP3      59              0.0000000000
     22496       251  TIP3      H1              5.9830974863       -8.4742246515      -19.4269100000  TIP3      59              0.0000000000
     22497       251  TIP3      H2              6.4923018310       -7.1710969351      -18.8485800000  TIP3      59              0.0000000000
     22498       252  TIP3      OH2           -11.8568462886       -0.0510704913      -20.0444200000  TIP3      60              0.0000000000
     22499       252  TIP3      H1            -11.6265967209        0.7809232928      -19.6309100000  TIP3      60              0.0000000000
     22500       252  TIP3      H2            -11.1522260862       -0.2100114620      -20.6725000000  TIP3      60              0.0000000000
     22501       253  TIP3      OH2            14.2527610112       -5.3543944056      -19.7085050000  TIP3      61              0.0000000000
     22502       253  TIP3      H1             13.3642648101       -5.0487895561      -19.5257050000  TIP3      61              0.0000000000
     22503       253  TIP3      H2             14.3870147916       -6.0802402667      -19.0991150000  TIP3      61              0.0000000000
     22504       254  TIP3      OH2            -8.0436179731       12.6787371786      -20.5087200000  TIP3      62              0.0000000000
     22505       254  TIP3      H1             -8.5200835870       13.3008647854      -21.0584200000  TIP3      62              0.0000000000
     22506       254  TIP3      H2             -8.6047907874       12.5563046806      -19.7429900000  TIP3      62              0.0000000000
     22507       255  TIP3      OH2           -10.2457379615       14.2469060701      -21.5792900000  TIP3      63              0.0000000000
     22508       255  TIP3      H1            -10.8988156153       14.1862201425      -22.2764600000  TIP3      63              0.0000000000
     22509       255  TIP3      H2            -10.4882789280       15.0337077925      -21.0910800000  TIP3      63              0.0000000000
     22510       256  TIP3      OH2            -8.2850969505       15.4590709344      -19.1834000000  TIP3      64              0.0000000000
     22511       256  TIP3      H1             -8.4351293636       14.5372305707      -18.9738000000  TIP3      64              0.0000000000
     22512       256  TIP3      H2             -9.1626037260       15.8341840687      -19.2576900000  TIP3      64              0.0000000000
     22513       257  TIP3      OH2           -21.5317216679        5.4007873686      -19.9594300000  TIP3      65              0.0000000000
     22514       257  TIP3      H1            -21.3901331875        4.5383259303      -19.5691300000  TIP3      65              0.0000000000
     22515       257  TIP3      H2            -21.1417497759        6.0133684322      -19.3358100000  TIP3      65              0.0000000000
     22516       258  TIP3      OH2           -17.9678552543        5.8206913659      -19.6954400000  TIP3      66              0.0000000000
     22517       258  TIP3      H1            -18.1484524475        6.6383123100      -20.1592500000  TIP3      66              0.0000000000
     22518       258  TIP3      H2            -18.1377076423        5.1355052035      -20.3419100000  TIP3      66              0.0000000000
     22519       259  TIP3      OH2            11.1887518347       23.3115630095      -19.6498300000  TIP3      67              0.0000000000
     22520       259  TIP3      H1             10.2714623179       23.0457126938      -19.7141400000  TIP3      67              0.0000000000
     22521       259  TIP3      H2             11.6108682412       22.6020133092      -19.1655000000  TIP3      67              0.0000000000
     22522       260  TIP3      OH2            15.6016090965       20.9794648915      -20.2670100000  TIP3      68              0.0000000000
     22523       260  TIP3      H1             16.3803349260       20.9134775465      -19.7143200000  TIP3      68              0.0000000000
     22524       260  TIP3      H2             15.9411384069       20.9717188005      -21.1619400000  TIP3      68              0.0000000000
     22525       261  TIP3      OH2           -12.5852620021      -22.5919722330      -19.1925600000  TIP3      69              0.0000000000
     22526       261  TIP3      H1            -13.5349974272      -22.7110582702      -19.2005200000  TIP3      69              0.0000000000
     22527       261  TIP3      H2            -12.2629424398      -23.1884148726      -19.8682800000  TIP3      69              0.0000000000
     22528       262  TIP3      OH2            -8.3378823405      -23.1879896007      -21.3180000000  TIP3      70              0.0000000000
     22529       262  TIP3      H1             -7.3953880017      -23.3340081730      -21.2367000000  TIP3      70              0.0000000000
     22530       262  TIP3      H2             -8.6767194416      -23.3078709208      -20.4308400000  TIP3      70              0.0000000000
     22531       263  TIP3      OH2           -11.8157129630      -24.4381808331      -20.9540900000  TIP3      71              0.0000000000
     22532       263  TIP3      H1            -11.5043797467      -25.3408994257      -20.8878200000  TIP3      71              0.0000000000
     22533       263  TIP3      H2            -12.6118339338      -24.4970598686      -21.4822600000  TIP3      71              0.0000000000
     22534       264  TIP3      OH2           -15.6941829129       20.5438967493      -20.9393050000  TIP3      72              0.0000000000
     22535       264  TIP3      H1            -15.9282554695       20.0536698508      -20.1511950000  TIP3      72              0.0000000000
     22536       264  TIP3      H2            -16.3575514885       20.2947266851      -21.5827950000  TIP3      72              0.0000000000
     22537       265  TIP3      OH2            10.8965871816      -22.3169954454      -20.7379000000  TIP3      73              0.0000000000
     22538       265  TIP3      H1             10.0138842136      -22.1074428418      -21.0431200000  TIP3      73              0.0000000000
     22539       265  TIP3      H2             11.4497071963      -22.2105468234      -21.5118200000  TIP3      73              0.0000000000
     22540       266  TIP3      OH2             9.8854811576      -26.4499208371      -19.3028000000  TIP3      74              0.0000000000
     22541       266  TIP3      H1             10.7412517242      -26.8479076460      -19.4624300000  TIP3      74              0.0000000000
     22542       266  TIP3      H2             10.0846408757      -25.6120143169      -18.8850900000  TIP3      74              0.0000000000
     22543       267  TIP3      OH2             5.4014417725       29.2752159354      -20.6752950000  TIP3      75              0.0000000000
     22544       267  TIP3      H1              5.5831938478       28.8016954679      -21.4870650000  TIP3      75              0.0000000000
     22545       267  TIP3      H2              4.9697362779       30.0810406307      -20.9590250000  TIP3      75              0.0000000000
     22546       268  TIP3      OH2            28.3727011166      -11.3659156826      -20.7225200000  TIP3      76              0.0000000000
     22547       268  TIP3      H1             28.0587336359      -10.8736315943      -19.9640300000  TIP3      76              0.0000000000
     22548       268  TIP3      H2             27.7983538058      -11.0951974505      -21.4388200000  TIP3      76              0.0000000000
     22549       269  TIP3      OH2            25.8273063404       -7.3588653453      -19.1052500000  TIP3      77              0.0000000000
     22550       269  TIP3      H1             25.3243377416       -6.7663702044      -18.5464900000  TIP3      77              0.0000000000
     22551       269  TIP3      H2             25.2404582234       -7.5563336133      -19.8352200000  TIP3      77              0.0000000000
     22552       270  TIP3      OH2            23.5285133414       23.2977844274      -20.2051550000  TIP3      78              0.0000000000
     22553       270  TIP3      H1             22.8550530159       23.1333467506      -19.5451350000  TIP3      78              0.0000000000
     22554       270  TIP3      H2             23.5833998345       24.2518703780      -20.2594950000  TIP3      78              0.0000000000
     22555       271  TIP3      OH2            19.7335517224       23.8746850440      -21.2674750000  TIP3      79              0.0000000000
     22556       271  TIP3      H1             19.4417723408       23.8290904229      -20.3569650000  TIP3      79              0.0000000000
     22557       271  TIP3      H2             20.1765707445       24.7204725441      -21.3354450000  TIP3      79              0.0000000000
     22558       272  TIP3      OH2            21.2336651512       20.9778810406      -20.0123250000  TIP3      80              0.0000000000
     22559       272  TIP3      H1             21.3132637264       21.1929211748      -20.9416550000  TIP3      80              0.0000000000
     22560       272  TIP3      H2             20.9959396582       20.0507575565      -20.0000350000  TIP3      80              0.0000000000
     22561       273  TIP3      OH2            -1.7463743924       31.6797599033      -19.1512550000  TIP3      81              0.0000000000
     22562       273  TIP3      H1             -2.2505242587       30.8850019896      -18.9768250000  TIP3      81              0.0000000000
     22563       273  TIP3      H2             -0.8963879271       31.5196025449      -18.7412550000  TIP3      81              0.0000000000
     22564       274  TIP3      OH2             1.6908093029       28.7972435111      -20.2117550000  TIP3      82              0.0000000000
     22565       274  TIP3      H1              1.5198788508       29.5427889489      -19.6362750000  TIP3      82              0.0000000000
     22566       274  TIP3      H2              0.8232087021       28.5094738837      -20.4958050000  TIP3      82              0.0000000000
     22567       275  TIP3      OH2            27.2938796925      -18.2341315604      -21.4431450000  TIP3      83              0.0000000000
     22568       275  TIP3      H1             26.7263075528      -17.6389432581      -21.9328950000  TIP3      83              0.0000000000
     22569       275  TIP3      H2             26.9998808763      -18.1537894731      -20.5357550000  TIP3      83              0.0000000000
     22570       276  TIP3      OH2            25.9014697831      -21.8147124316      -19.3827950000  TIP3      84              0.0000000000
     22571       276  TIP3      H1             26.4027467114      -22.1126411776      -20.1418650000  TIP3      84              0.0000000000
     22572       276  TIP3      H2             25.8416460372      -20.8656665318      -19.4921550000  TIP3      84              0.0000000000
     22573       277  TIP3      OH2            24.5031201351      -16.9645707805      -19.8801750000  TIP3      85              0.0000000000
     22574       277  TIP3      H1             23.7587842783      -16.4292782279      -19.6051050000  TIP3      85              0.0000000000
     22575       277  TIP3      H2             24.7386265980      -16.6229803785      -20.7427750000  TIP3      85              0.0000000000
     22576       278  TIP3      OH2            13.0757685514       31.1995249386      -18.7988200000  TIP3      86              0.0000000000
     22577       278  TIP3      H1             13.7115411986       31.7985554027      -18.4074300000  TIP3      86              0.0000000000
     22578       278  TIP3      H2             13.4222231250       30.3268205273      -18.6128400000  TIP3      86              0.0000000000
     22579       279  TIP3      OH2            14.7527162178       27.8256139284      -21.6440700000  TIP3      87              0.0000000000
     22580       279  TIP3      H1             15.1072126487       26.9616552265      -21.4340000000  TIP3      87              0.0000000000
     22581       279  TIP3      H2             13.8722037839       27.8214862474      -21.2686900000  TIP3      87              0.0000000000
     22582       280  TIP3      OH2           -26.8222543682      -14.0630646667      -19.5573400000  TIP3      88            -34.6900000000
     22583       280  TIP3      H1            -27.2874009113      -14.8227561751      -19.2069900000  TIP3      88            -34.5000000000
     22584       280  TIP3      H2            -26.3728337922      -14.3944092208      -20.3348100000  TIP3      88            -33.8900000000
     22585       281  TIP3      OH2           -30.6108389858      -14.9574224077      -19.4884000000  TIP3      89              0.0000000000
     22586       281  TIP3      H1            -29.9210218291      -15.6041593139      -19.3396500000  TIP3      89              0.0000000000
     22587       281  TIP3      H2            -31.0123469375      -14.8326983202      -18.6284800000  TIP3      89              0.0000000000
     22588       282  TIP3      OH2           -28.3404114022      -17.2016326128      -21.9929300000  TIP3      90              0.0000000000
     22589       282  TIP3      H1            -28.9073528868      -17.4843865069      -22.7104700000  TIP3      90              0.0000000000
     22590       282  TIP3      H2            -28.7376056394      -17.5815396546      -21.2092600000  TIP3      90              0.0000000000
     22591       283  TIP3      OH2            11.0283906723      -29.7978977372      -20.8060200000  TIP3      91              0.0000000000
     22592       283  TIP3      H1             10.8589372503      -30.4022722848      -20.0833500000  TIP3      91              0.0000000000
     22593       283  TIP3      H2             10.6079854879      -30.2054001006      -21.5632700000  TIP3      91              0.0000000000
     22594       284  TIP3      OH2            12.4679956725      -32.9355135438      -20.0472100000  TIP3      92              0.0000000000
     22595       284  TIP3      H1             12.6369079776      -32.6009119609      -20.9279700000  TIP3      92              0.0000000000
     22596       284  TIP3      H2             11.8654504014      -32.3001556340      -19.6605700000  TIP3      92              0.0000000000
     22597       285  TIP3      OH2           -32.6296574853       16.3153033620      -20.7948600000  TIP3      93              0.0000000000
     22598       285  TIP3      H1            -33.5170738256       16.5112535463      -20.4943400000  TIP3      93              0.0000000000
     22599       285  TIP3      H2            -32.1597737606       16.0556189369      -20.0024000000  TIP3      93              0.0000000000
     22600       286  TIP3      OH2           -15.9502685351       33.7144998870      -19.3473700000  TIP3      94              0.0000000000
     22601       286  TIP3      H1            -16.2605941040       33.1242515727      -20.0340500000  TIP3      94              0.0000000000
     22602       286  TIP3      H2            -15.1991772837       34.1620390940      -19.7369800000  TIP3      94              0.0000000000
     22603       287  TIP3      OH2           -11.4098753270       33.0994130115      -21.6611800000  TIP3      95              0.0000000000
     22604       287  TIP3      H1            -12.3083427794       33.4251419534      -21.6073500000  TIP3      95              0.0000000000
     22605       287  TIP3      H2            -11.2902593478       32.5915075498      -20.8587100000  TIP3      95              0.0000000000
     22606       288  TIP3      OH2           -13.7543129386       34.5085934892      -21.1417200000  TIP3      96              0.0000000000
     22607       288  TIP3      H1            -14.0990563787       35.3697034022      -21.3780900000  TIP3      96              0.0000000000
     22608       288  TIP3      H2            -13.1645856629       34.6795058829      -20.4073800000  TIP3      96              0.0000000000
     22609       289  TIP3      OH2           -13.0626109666       37.1695284182      -18.1233000000  TIP3      97              0.0000000000
     22610       289  TIP3      H1            -13.6361106450       37.8044461264      -18.5525000000  TIP3      97              0.0000000000
     22611       289  TIP3      H2            -13.5133190110       36.9522431089      -17.3072900000  TIP3      97              0.0000000000
     22612       290  TIP3      OH2            20.7851500635      -28.5169187061      -11.0287950000  TIP3      98              0.0000000000
     22613       290  TIP3      H1             20.3619100860      -27.9962286363      -11.7114150000  TIP3      98              0.0000000000
     22614       290  TIP3      H2             21.3786579148      -29.0985141361      -11.5038950000  TIP3      98              0.0000000000
     22615       291  TIP3      OH2            21.1307906402      -24.9501343880      -14.7777850000  TIP3      99              0.0000000000
     22616       291  TIP3      H1             21.4519576840      -24.0690870137      -14.9697350000  TIP3      99              0.0000000000
     22617       291  TIP3      H2             20.4887410470      -25.1266293544      -15.4654250000  TIP3      99              0.0000000000
     22618       292  TIP3      OH2            27.1747234899      -27.8594995334      -19.8044450000  TIP3      100             0.0000000000
     22619       292  TIP3      H1             27.5223469619      -28.7244359442      -20.0218850000  TIP3      100             0.0000000000
     22620       292  TIP3      H2             27.8416373852      -27.4676248255      -19.2406250000  TIP3      100             0.0000000000
     22621       293  TIP3      OH2            24.7910853580      -27.2797287609      -21.7401350000  TIP3      101             0.0000000000
     22622       293  TIP3      H1             25.1758019204      -28.0434170648      -22.1702650000  TIP3      101             0.0000000000
     22623       293  TIP3      H2             24.9558688126      -27.4210025083      -20.8078650000  TIP3      101             0.0000000000
     22624       294  TIP3      OH2            20.0018368847      -27.2823455365      -13.2895850000  TIP3      102             0.0000000000
     22625       294  TIP3      H1             20.1959489046      -26.3562748237      -13.4343050000  TIP3      102             0.0000000000
     22626       294  TIP3      H2             19.5887705926      -27.5709955379      -14.1033950000  TIP3      102             0.0000000000
     22627       295  TIP3      OH2            23.6026130272      -29.6636449670      -19.8903250000  TIP3      103             0.0000000000
     22628       295  TIP3      H1             24.1594487623      -30.1015852764      -19.2466050000  TIP3      103             0.0000000000
     22629       295  TIP3      H2             22.7538800259      -30.0987077661      -19.8089950000  TIP3      103             0.0000000000
     22630       296  TIP3      OH2            20.0718865573       31.3981188706      -19.2505950000  TIP3      104             0.0000000000
     22631       296  TIP3      H1             21.0271219433       31.3812453877      -19.3094750000  TIP3      104             0.0000000000
     22632       296  TIP3      H2             19.7937964425       31.9127814888      -20.0082350000  TIP3      104             0.0000000000
     22633       297  TIP3      OH2           -38.4790112359      -17.9184701585      -18.6399500000  TIP3      105             0.0000000000
     22634       297  TIP3      H1            -38.7706571018      -17.2605482633      -18.0088300000  TIP3      105             0.0000000000
     22635       297  TIP3      H2            -37.5329595125      -17.7873746652      -18.7034300000  TIP3      105             0.0000000000
     22636       298  TIP3      OH2           -34.9460772372      -17.3068479033      -20.2370100000  TIP3      106             0.0000000000
     22637       298  TIP3      H1            -34.0697109797      -17.5738525034      -20.5143800000  TIP3      106             0.0000000000
     22638       298  TIP3      H2            -34.8333657248      -16.4132870188      -19.9128500000  TIP3      106             0.0000000000
     22639       299  TIP3      OH2           -33.8882124265      -21.5066116681      -19.9511700000  TIP3      107             0.0000000000
     22640       299  TIP3      H1            -32.9888922014      -21.2485556047      -19.7490300000  TIP3      107             0.0000000000
     22641       299  TIP3      H2            -34.4249155722      -20.7875798091      -19.6177400000  TIP3      107             0.0000000000
     22642       300  TIP3      OH2            21.1565907158      -36.2028550768      -18.7047750000  TIP3      108             0.0000000000
     22643       300  TIP3      H1             21.8176840756      -35.5508323531      -18.9372550000  TIP3      108             0.0000000000
     22644       300  TIP3      H2             20.8735678722      -36.5672393280      -19.5434350000  TIP3      108             0.0000000000
     22645       301  TIP3      OH2            32.3484432634       34.6862265566      -20.6447550000  TIP3      109             0.0000000000
     22646       301  TIP3      H1             32.1749447873       35.6264053443      -20.5978750000  TIP3      109             0.0000000000
     22647       301  TIP3      H2             31.9426001493       34.3276406819      -19.8554850000  TIP3      109             0.0000000000
     22648       302  TIP3      OH2            28.0655279698       33.2558855040      -19.9425250000  TIP3      110             0.0000000000
     22649       302  TIP3      H1             28.2808184328       32.4460280266      -20.4051450000  TIP3      110             0.0000000000
     22650       302  TIP3      H2             27.2178326265       33.5189200643      -20.3009350000  TIP3      110             0.0000000000
